/*--------------------------------*- C++ -*----------------------------------*\
| =========                 |                                                 |
| \\      /  F ield         | OpenFOAM: The Open Source CFD Toolbox           |
|  \\    /   O peration     | Version:  v1612+                                |
|   \\  /    A nd           | Web:      www.OpenFOAM.com                      |
|    \\/     M anipulation  |                                                 |
\*---------------------------------------------------------------------------*/
FoamFile
{
    version     2.0;
    format      ascii;
    class       volScalarField;
    location    "1.4";
    object      p;
}
// * * * * * * * * * * * * * * * * * * * * * * * * * * * * * * * * * * * * * //

dimensions      [0 2 -2 0 0 0 0];

internalField   nonuniform List<scalar> 
80683
(
100.066666461837
100.0686361358
100.06547535777
100.069801499436
100.07682782374
100.076964106281
100.075017176995
100.075567667034
100.075552588195
100.075932413201
100.07642969081
100.076198403334
100.077923227858
100.077538394794
100.080078869427
100.080080446593
100.076651576819
100.071837045098
100.070750861491
100.070702142856
100.071705791863
100.071561564227
100.070778268599
100.072218148394
100.078665120841
100.078714814687
100.073000760227
100.071194454343
100.071089078881
100.070376212203
100.070244500045
100.071230067853
100.071180549908
100.072930891346
100.078479634189
100.078310261246
100.072113015944
100.070731903112
100.071464857613
100.071418666505
100.070536886239
100.070586841557
100.071710494106
100.076449655678
100.079721280516
100.079572484736
100.072630040032
100.072115696029
100.069921617702
100.069403366435
100.069329931582
100.068958950353
100.068424000063
100.067287721094
100.068378903248
100.069529717495
100.069691958182
100.068855952571
100.067821777206
100.066669952
100.066298174281
100.066888355394
100.066814050192
100.066138194565
100.066691625726
100.067821816596
100.068798531008
100.069780537119
100.069753238444
100.06856276387
100.067464143015
100.068640739604
100.069067438022
100.06939787124
100.0694012956
100.069902669206
100.072340308792
100.073048507113
100.070442621534
100.073598470874
100.076715957841
100.078368587124
100.076211185962
100.075960537823
100.077124144572
100.075118639785
100.0726394326
100.068444143597
100.073745620332
100.061843877003
100.049817300195
100.055534896748
100.056653457681
100.068840714546
100.064740195281
100.065955149347
100.068109885017
100.066113751708
100.064699175814
100.064185619635
100.066759216123
100.068258938042
100.064194442833
100.063253853221
100.065589905095
100.062796010683
100.061677126731
100.062707058514
100.062711336563
100.06172801117
100.062810797667
100.065540923969
100.063212311134
100.064011598123
100.068495511232
100.067284756283
100.064520144114
100.064886162774
100.066215312338
100.068172224084
100.065906900541
100.064613976302
100.069162188901
100.06919621406
100.066198541459
100.069738694009
100.075974298748
100.081372803609
100.074739404746
100.074646285025
100.078927366602
100.094223297134
100.062837433687
100.06337894372
100.047257049061
100.020800983289
100.021711999645
100.017248470684
100.017650592548
100.024031321575
100.054783719892
100.067129762902
100.063237102205
100.063039188968
100.069937491911
100.056215472881
100.056965266894
100.056894447582
100.057086620439
100.066795763603
100.061947728057
100.061936548175
100.066741673746
100.057112241333
100.056935327382
100.056962613523
100.056047923091
100.054883571418
100.056936404124
100.055154768877
100.015658064928
100.018827577742
100.019826895512
100.019674105119
100.018874021338
100.019010803555
100.020461855238
100.021109158826
100.024433166872
100.021547900962
100.022555451938
100.026144650699
100.026148232973
100.022563261923
100.021503497125
100.024187073747
100.023694300138
100.016977102909
100.018694591202
100.025474406752
100.025911044166
100.024786666632
100.024658492392
100.025751341244
100.025623176941
100.024717646688
100.025090052566
100.025378710006
100.020157326858
100.02092893891
100.022128959766
100.022085456795
100.020809562407
100.019933738883
100.020859186615
100.020130290493
100.024472361702
100.025733335821
100.02645699151
100.026709382065
100.025877222646
100.025894852885
100.026796864596
100.026628725914
100.025951013584
100.026189949913
100.026381697871
100.02638914717
100.025662415659
100.025255181821
100.025191458086
100.025476303779
100.025021339849
100.024814677412
100.025949632022
100.024149251285
100.023989106349
100.024187363043
100.024351430104
100.023838668641
100.023794272091
100.024344016953
100.024304240365
100.024094735517
100.024321546237
100.024321989377
100.024336412598
100.024209191367
100.026007351964
100.025953012699
100.026248157972
100.02613410385
100.024158551374
100.021833254233
100.021851752527
100.021722611214
100.021723234081
100.021720768967
100.021703900135
100.021618265882
100.021620028245
100.021776883074
100.021736228109
100.021944748535
100.021923637086
100.021997969552
100.021960387815
100.021939945309
100.024176282261
100.024282984474
100.021963280148
100.020074239328
100.019947224467
100.01993341841
100.019809345599
100.019807142025
100.019636761198
100.020079501126
100.020070884528
100.019638332171
100.019835869219
100.019792507725
100.019976579856
100.019982421468
100.020100934737
100.020083351532
100.020070131116
100.018419818118
100.018390018491
100.018232730734
100.018173799693
100.018014798685
100.018039199762
100.017827466612
100.017684560622
100.017754351536
100.017920092017
100.018073680832
100.018037742737
100.018217240445
100.018260449331
100.018420691175
100.018433613246
100.01674966069
100.016718600731
100.016600204975
100.016360484883
100.016227688508
100.015990194665
100.015972302077
100.01590499141
100.015423514061
100.01546591554
100.015923344123
100.016062421274
100.016136559202
100.016353566284
100.016444013518
100.016688288599
100.01467527146
100.014819535733
100.014744699474
100.014449670616
100.014045849579
100.013820995521
100.013461219557
100.013347196096
100.013364084757
100.012554583612
100.012642156096
100.013473813717
100.013568963884
100.01384868646
100.014145169949
100.014310924144
100.011278246505
100.011941232442
100.012264503103
100.012082914091
100.011473512667
100.010648843767
100.010560930973
100.009996419142
100.009382017859
100.009624665697
100.008116781915
100.008318067203
100.010103828547
100.009988789063
100.010755611983
100.011233529586
100.007021497213
100.006147883935
100.00758010525
100.008425970741
100.008042386432
100.006685589266
100.004800854146
100.005525471322
100.004810705737
100.00259680749
100.004167208268
100.00128090214
100.001342930106
100.004826209935
100.00386324664
100.00637544235
99.9946526222414
99.9947620867737
99.9898520376876
99.9927666983903
99.9965036514302
99.9957948846484
99.9911146156608
99.9875130758911
99.9922263247946
99.9920684395551
99.9844770356903
99.9888573370529
99.9865610104804
99.9868886374359
99.9902809924459
99.9871886670082
99.9984282286199
100.006050345866
100.005231404401
100.000293069549
100.006980195935
100.008250186038
100.006975218385
100.00416011652
99.9961384152633
100.000664395933
100.001676755454
99.994254806841
99.9898540763335
100.025290072885
100.050003042149
100.051015937164
100.028114608193
99.9928376040384
99.9917007260436
100.086190551783
100.170660431166
100.111929101547
100.113572952082
100.100493471501
100.085562886636
100.075624160034
100.069524414976
100.066776087593
100.070519628516
100.083563249721
100.071873507105
100.070180154068
100.07889842203
100.064205173513
100.059935494789
100.063467950833
100.069430291649
100.08089497317
100.096770260365
100.192201523448
100.213668990677
100.215760472834
100.196456657011
100.1993974611
100.191650503049
100.215823337755
100.256630361803
100.164272484345
100.166853868552
100.222348115773
100.183751313773
100.209595718847
100.234247125521
100.172686357888
100.170080692638
100.229260311725
100.203269020767
100.175484854288
100.213094341852
100.156778571683
100.154782815055
100.206491726507
100.183456929941
100.193285900247
100.290073016379
100.338355207383
100.307788754718
100.310479930994
100.345159584734
100.315171313343
100.297503868961
100.405614828737
100.43500220889
100.407816341318
100.426367598637
100.424403630784
100.380089208895
100.319637874472
100.352892401549
100.298089449195
100.404461235307
100.431753841942
100.406546517721
100.417958688022
100.441021761359
100.393449991801
100.32961203518
100.333274347396
100.259408363678
100.299814530623
100.381382569652
100.420749677772
100.444263371485
100.458271565417
100.466381523649
100.470598019511
100.472519860614
100.473449019894
100.47377842634
100.473800962799
100.473779497684
100.473837232475
100.47397720896
100.474095231564
100.47407914396
100.474221521827
100.474408656581
100.474608812228
100.475286178839
100.476927147483
100.480756207074
100.488628192643
100.504644214379
100.528240508996
100.568383042002
100.562672326762
100.498328986642
100.441722231624
100.384968370965
100.352773151416
100.374982940874
100.373095227597
100.371032994712
100.371640024469
100.372710284295
100.373687862255
100.374855634695
100.376411694433
100.378278046638
100.380247342492
100.382052092062
100.383423400929
100.384134093296
100.383140608343
100.381892482583
100.380426321331
100.378802923825
100.377058159869
100.37521884201
100.373363145791
100.37162150067
100.370103497351
100.368858682451
100.367862970568
100.367079027992
100.366477252506
100.366061670525
100.365868300847
100.365943941792
100.366359976823
100.367201489183
100.368483575943
100.370036349464
100.37148914139
100.372149347747
100.37213055165
100.37204647013
100.372207298596
100.372288285924
100.37235668967
100.372403188858
100.372422928973
100.372560833976
100.372653693526
100.372956644317
100.373127365861
100.373266615024
100.373227778782
100.373156292937
100.373064246659
100.372975657502
100.372847830749
100.372857176581
100.372814861721
100.373030825218
100.373132934352
100.373190195399
100.373030854955
100.372852623464
100.372547569784
100.372431539072
100.372314907431
100.372302211693
100.372272698343
100.372204701801
100.372143156118
100.372062343134
100.372023707106
100.371925673165
100.372075928755
100.372121180233
100.372179079523
100.372213147676
100.372236006452
100.372313964954
100.372406955089
100.372714367989
100.372914429615
100.373085063103
100.372918684289
100.372756993405
100.37255480882
100.372267128008
100.372223325856
100.372153878582
100.372117077141
100.37208793207
100.372048807748
100.372016263116
100.371961288877
100.371934673337
100.371829005877
100.371959867068
100.371978398652
100.372011613067
100.372029905883
100.372066883995
100.372135594033
100.372176596258
100.372417871763
100.372598594644
100.372724166062
100.372719041796
100.372593450709
100.372390059943
100.372182278859
100.372110985318
100.372092120734
100.372370972845
100.372553215358
100.372423786511
100.372278125903
100.372064941163
100.372014132375
100.371972256493
100.371954197058
100.371939949633
100.371914513454
100.371899619833
100.371832726538
100.371801981298
100.371722525828
100.371848734451
100.371851555567
100.371861531864
100.371886948178
100.371914932597
100.371929344211
100.371939277989
100.372132431734
100.372259865509
100.372050055409
100.37195367624
100.371831651264
100.371861946613
100.371840029108
100.371806117327
100.371792588098
100.371794386906
100.37178114494
100.37169537178
100.371636456202
100.371618553393
100.371733424214
100.371733758396
100.371740094417
100.371745549958
100.371758072312
100.371763232489
100.371747356707
100.371846836439
100.371878650931
100.371922859123
100.371778213452
100.371755309221
100.371680184627
100.371691822381
100.371674363979
100.371705692869
100.371662809915
100.371721574687
100.371685644836
100.371676797676
100.371667601072
100.371669081663
100.371587607896
100.371460829295
100.371531373085
100.371612834345
100.371582611539
100.371605441337
100.3715903951
100.371627432194
100.371610527982
100.371636594069
100.371541256344
100.371667767023
100.37150950825
100.371455367527
100.371236627244
100.371295491033
100.371236216872
100.371471221881
100.37148410042
100.371573084974
100.371544547782
100.371575764088
100.371615344613
100.371586827746
100.371523817492
100.371575326046
100.371545654008
100.371546443731
100.371462500407
100.371416324638
100.371150798455
100.370399131543
100.371134161947
100.371422642385
100.371440833172
100.371504487474
100.371512026317
100.371518707227
100.371556045119
100.37153977643
100.371520907412
100.371540558593
100.371441228937
100.37132983068
100.371262031238
100.371157128137
100.37138423573
100.371215535676
100.371398079531
100.371495085119
100.371442750111
100.371485911998
100.371513255315
100.371486088433
100.371475081498
100.371463446777
100.371394126105
100.371374800109
100.371091747092
100.37017401003
100.371108047909
100.371370072963
100.37138148833
100.371434640874
100.371448883457
100.371458878
100.371477211141
100.371456822754
100.371382122029
100.371432042834
100.371254378893
100.371246503059
100.371379107136
100.371449291437
100.371427533808
100.371284758707
100.371216961213
100.370847934702
100.370636480043
100.370962473796
100.370925840574
100.371261721731
100.37102941319
100.371316124361
100.37140987379
100.371425582829
100.371420058639
100.371428542856
100.371402906661
100.371414633974
100.371381201771
100.371360543092
100.371342930944
100.371109942663
100.370173397436
100.371209681201
100.371332512144
100.371341546323
100.371406835102
100.371359172416
100.371460098459
100.371420815102
100.371504906529
100.37148913482
100.371500253494
100.371533152394
100.371578536978
100.371624540229
100.371659991056
100.37158276404
100.371596021165
100.371636163437
100.371678311752
100.371733580694
100.37179236273
100.371852559444
100.371924105229
100.371990961147
100.37207219006
100.372145927409
100.37224105055
100.372379280225
100.372447075399
100.372508994274
100.372513738279
100.372657268204
100.37275847971
100.373056544792
100.373214674205
100.373342186252
100.373339709124
100.373254378462
100.373117693184
100.372836944919
100.372598896106
100.372482841469
100.372363462636
100.372269996452
100.372322453035
100.372430207033
100.372620119706
100.372726013095
100.373023630544
100.372921843215
100.372774410221
100.372565422966
100.372365218613
100.372314281477
100.372153200132
100.372011047965
100.371841610551
100.371692804121
100.371698409108
100.371772632449
100.372005064115
100.372243425799
100.372379364673
100.372494047314
100.372630216308
100.372553342958
100.372389514073
100.372165632665
100.371965524242
100.371923732473
100.371785109245
100.371673796786
100.371582666934
100.37139201966
100.371138028969
100.370862272901
100.370728964238
100.370473885047
100.370570890615
100.370701101169
100.371032404384
100.371318334058
100.371022319451
100.370786090564
100.370617591259
100.370378381644
100.370654978678
100.370631744857
100.370967886746
100.371010973797
100.370908627323
100.371110170162
100.371200896927
100.371494006105
100.37148733855
100.371512306839
100.371516692888
100.371498491602
100.371735141362
100.371779023103
100.371827371631
100.371846156288
100.371883230037
100.371910646146
100.371956836521
100.372004247125
100.372065227776
100.372117178918
100.372189061708
100.372253968598
100.37232124868
100.372468351944
100.372541152055
100.372606823962
100.372591877623
100.372764595814
100.372876455096
100.373160706436
100.373285882884
100.373425031665
100.373386153503
100.373392616211
100.373398612489
100.373211022538
100.372989030644
100.372861270323
100.37273353705
100.372411880733
100.372016812606
100.371850271278
100.371734219122
100.371546466583
100.371410160134
100.371275047717
100.371154509236
100.371012082818
100.370910980953
100.370791181696
100.370907250568
100.371099716998
100.371293868685
100.371438111441
100.371578954086
100.371664129074
100.371789346495
100.371896538999
100.372022424744
100.372127591594
100.371954726267
100.372186331636
100.372459250041
100.372443096729
100.37264717628
100.372556544062
100.372390809134
100.372115851324
100.372199774646
100.37231184024
100.372333277811
100.372417400258
100.372566586796
100.372625542256
100.372692241049
100.372688274431
100.372877516423
100.372976037648
100.373235091627
100.373344941288
100.373460542633
100.373442537456
100.373460179639
100.373283075609
100.373099830793
100.372815990406
100.372497588653
100.372166823178
100.371609762776
100.371357453922
100.371191567311
100.371023374273
100.370818886215
100.370647492598
100.370468356758
100.370320651729
100.370201184954
100.370419849965
100.370623446011
100.370847574985
100.371182034789
100.371236277274
100.371443373692
100.371251802954
100.371489172675
100.371683195139
100.371525516591
100.371858403566
100.372177704081
100.37237171348
100.372407289906
100.372338006811
100.372427064166
100.372489596448
100.372654748532
100.372694220167
100.372772740774
100.372777887863
100.372963733506
100.373058763617
100.373299378574
100.373409621737
100.373537869131
100.373518962983
100.373544496894
100.373374643508
100.373220335675
100.372953545561
100.372620697408
100.372323749031
100.37180802768
100.371585103665
100.371275690009
100.371082463936
100.371019205421
100.370786969628
100.370620845281
100.370437232833
100.370268098945
100.370031833092
100.369798153779
100.3695853261
100.36939953858
100.369204674105
100.368948325074
100.368723369667
100.369044571648
100.36934351477
100.369528993963
100.369701202955
100.369881984406
100.370078179842
100.370327475017
100.370545651761
100.370703307226
100.370842870529
100.37106735669
100.370919456272
100.370750692758
100.37032231092
100.370373183496
100.370579300792
100.370558456466
100.371147706594
100.371503145654
100.371965755326
100.372215509173
100.372251049469
100.37219331688
100.372282701334
100.372348579775
100.372193725276
100.372243962095
100.372322562904
100.372356527598
100.372468581404
100.372563866728
100.372755226359
100.37276719741
100.372855831404
100.372859988371
100.373044936883
100.373144811135
100.373373630068
100.373489567699
100.373648541042
100.373568027463
100.373651145018
100.373485291201
100.373324426757
100.373056217561
100.372747525781
100.372442337755
100.371947119193
100.37171678106
100.37130412037
100.371245556278
100.371081239491
100.371123965311
100.371056090955
100.371163666569
100.370981152502
100.37079692236
100.370640548696
100.370460951352
100.370257669185
100.370005178824
100.369764407776
100.369518979006
100.369270190351
100.368939355141
100.36857377676
100.368242489582
100.367972209086
100.367569502091
100.367823519349
100.368199771595
100.368481594311
100.368825169277
100.369083732098
100.369297511718
100.369556941791
100.369806392795
100.370067847663
100.370252155905
100.370428653548
100.37058743369
100.370815286919
100.370784627414
100.370675313912
100.370462321384
100.370363680601
100.370187117881
100.370403350705
100.37006177351
100.369817027784
100.369458080781
100.369060988043
100.368633908378
100.368115047267
100.367474332766
100.366512011759
100.365237125923
100.364432210975
100.364705978655
100.365399407629
100.366008142987
100.366607624052
100.367292618715
100.367846105897
100.368392300724
100.368880930008
100.369314422055
100.369747244271
100.370334383517
100.368620395673
100.367913070246
100.367429394997
100.366972023174
100.366577036982
100.366339241976
100.366060464212
100.365705259223
100.364942387471
100.364198179394
100.361279913065
100.359007188411
100.362678875554
100.361933695326
100.360673967584
100.356960806317
100.356700358215
100.357072518042
100.359901576009
100.361465331806
100.362213074094
100.363389844216
100.364270233162
100.365462818353
100.366404769777
100.367042205212
100.367745617159
100.368307629548
100.368874964604
100.369337458307
100.369750838949
100.370121386232
100.370578436134
100.370329765465
100.370934123907
100.369146281497
100.372501486819
100.372700907896
100.372789783952
100.372960945391
100.373086828263
100.373044348339
100.372645767947
100.371811969012
100.370705538607
100.369274027324
100.36754495455
100.366086857543
100.364322952642
100.365351940288
100.365112666138
100.362026308674
100.35971906013
100.359424194574
100.349433254695
100.352202762394
100.351725764285
100.35560007737
100.35833370823
100.365637622891
100.367184082773
100.369791508286
100.369723695434
100.370045093756
100.370294971093
100.370535303713
100.370930711718
100.371282198783
100.37160890656
100.371905922685
100.370952398958
100.36933712405
100.367775851762
100.366625019802
100.36597635736
100.36575766695
100.365860967396
100.366192959158
100.366696175067
100.367335655186
100.368134092275
100.369139881036
100.370391701172
100.371904780787
100.373632311071
100.375457733057
100.377256848988
100.378940107143
100.380478207857
100.381838776028
100.382990510554
100.383924478767
100.384681690154
100.384913848343
100.384469966644
100.383674065233
100.382652742922
100.381368210763
100.379877696108
100.378258545296
100.376541010667
100.37472743978
100.372888572033
100.371172597644
100.369687128177
100.368481963934
100.367530711726
100.366806729011
100.366297093838
100.36601703485
100.365983424592
100.366239217058
100.366843701803
100.36784867255
100.369203394952
100.370715522242
100.371915529827
100.372304696126
100.372412165894
100.37247048711
100.372457061025
100.372510096139
100.372637903113
100.372820950995
100.372823328414
100.372933359265
100.372957426988
100.373171298328
100.373285688042
100.37346331993
100.373622039446
100.373634861917
100.373722396577
100.373781199837
100.373767044056
100.37361561478
100.373462102945
100.373137341523
100.372894076157
100.372700138743
100.372546931023
100.372227116088
100.371879629709
100.371482441945
100.371372856377
100.371226834236
100.371218586517
100.371328319288
100.371248854073
100.371515693632
100.371399633338
100.371210675088
100.371326827178
100.371110230661
100.370949125199
100.370790975728
100.370574830858
100.37033235727
100.370093129775
100.3698254
100.369520222269
100.369249278239
100.368766377111
100.368993648451
100.369358303368
100.369665122169
100.369921766456
100.37016058658
100.370411232727
100.370623942218
100.370786880768
100.37096331529
100.371193440065
100.371040259943
100.37107633518
100.371118374688
100.370905501385
100.370541237179
100.37020701828
100.370077772831
100.370262110017
100.370499539981
100.37070199088
100.372315826586
100.372206514931
100.372772802827
100.372620247137
100.372394004371
100.372687884836
100.372669492939
100.372807029865
100.373004921832
100.372948138279
100.373063610908
100.373136599849
100.37339466859
100.373670823034
100.373841994571
100.373940154135
100.373903218065
100.373804161948
100.373728529678
100.373601327028
100.373291552874
100.373042597365
100.372664485879
100.372338208296
100.372013254146
100.371634406552
100.371502945119
100.37123258121
100.371361168744
100.371213214995
100.371355601492
100.371444658964
100.371643703773
100.371560559679
100.371796464157
100.3716322966
100.371652336887
100.37150875285
100.371386223702
100.371247080567
100.371077559295
100.370885393572
100.370692901469
100.370473689212
100.370218664563
100.369937237809
100.36964475886
100.369305537352
100.368882049084
100.368412260648
100.368056028823
100.367596422754
100.367929681238
100.368376630628
100.368823977491
100.369060612901
100.369388766816
100.369702665779
100.369994966026
100.370249875188
100.370485455512
100.370702910182
100.37089399015
100.371068639982
100.371256088439
100.371467260932
100.371606477337
100.37149863543
100.371390959859
100.371384348073
100.371105125624
100.370213768916
100.369401153567
100.369086808874
100.369351709514
100.369719032713
100.370429956439
100.370832962002
100.370714698377
100.369787504092
100.371612984366
100.369905216849
100.37220507117
100.372384870105
100.373759297589
100.372327933731
100.371924398291
100.371459614309
100.370808301653
100.370066470711
100.369329063677
100.368587541514
100.367955928209
100.367374042549
100.366710627227
100.366633321816
100.364917126224
100.364471772067
100.36394625586
100.362859966529
100.360326780897
100.359190896245
100.358527061901
100.358661362629
100.34966999922
100.353058892145
100.349732031373
100.34911584274
100.351841026494
100.353354023457
100.351716309999
100.3524480476
100.352555945159
100.357742860723
100.356069656451
100.358118108662
100.356406235691
100.354232398368
100.355370419812
100.357820624244
100.359210897849
100.360378512163
100.360472301497
100.358228114068
100.359056847973
100.361341515813
100.362613795051
100.364280105309
100.364057775865
100.365385256677
100.366385658486
100.367401233014
100.368175877628
100.368874119456
100.369395877824
100.369827385959
100.370183155649
100.370529981418
100.370714811574
100.370736636025
100.370857680017
100.370949619943
100.370162495964
100.369186751001
100.371675363029
100.372759370846
100.37301521482
100.37277702861
100.372802702821
100.372952148397
100.372952737837
100.373178376163
100.373143544056
100.373251739705
100.373334098608
100.373588259829
100.373685619508
100.373976216459
100.374107775194
100.374052158475
100.374096000689
100.374034296897
100.374007280138
100.373986858021
100.373881261426
100.373705453863
100.373443078358
100.373194116185
100.373127764059
100.372659903791
100.372431636714
100.372182642441
100.372092376579
100.371857699067
100.371650847751
100.371394609889
100.37148601667
100.371469287221
100.371612854674
100.371752485972
100.3716700371
100.371859456767
100.371791094557
100.371933278585
100.371821636649
100.371724008461
100.371578441496
100.371575835601
100.371374108432
100.37122648917
100.371045546011
100.370856254289
100.370626031683
100.370401143265
100.370116839964
100.369815929925
100.369512939282
100.369151092675
100.368724552503
100.368374246136
100.368595915561
100.369034636758
100.369395577615
100.369708970561
100.370010773348
100.370292323026
100.370525884863
100.370743879825
100.370949383067
100.371141305493
100.371303992743
100.371468245302
100.371480394853
100.371532944641
100.371356268481
100.371164424155
100.371391370569
100.370649710139
100.370904283077
100.370112014589
100.370555739802
100.370954571065
100.371044026485
100.371283611774
100.371129435788
100.371437476858
100.369662593971
100.373225223357
100.374652928373
100.373361061058
100.372317942835
100.372584329282
100.371308649478
100.370688343706
100.369903678962
100.368919724148
100.368214965787
100.367512359691
100.36687357073
100.366297877872
100.365828530649
100.365325786366
100.365358905107
100.365735747245
100.366468004415
100.367142622356
100.36796658843
100.368950997833
100.369806280319
100.370588532118
100.37112399694
100.371709139414
100.372409842178
100.37185249767
100.371597875405
100.372032027679
100.372334177324
100.372658820189
100.372571758468
100.372558732819
100.372762155117
100.372747759657
100.372965398739
100.372989645173
100.37301878381
100.373205131318
100.373253233616
100.373471037434
100.373756807636
100.373913230533
100.374009223606
100.373979405381
100.373975913353
100.37395135101
100.373836305335
100.373582582541
100.373216388787
100.372955988031
100.373219240476
100.373358884662
100.37354558477
100.373837883963
100.373969520806
100.374067954005
100.374108507668
100.373995608563
100.373873448322
100.373671186409
100.373597023716
100.373483378685
100.373230841915
100.373197817086
100.373113635673
100.373133393756
100.372886627511
100.372901922553
100.372756335111
100.372671506379
100.372588930542
100.372836647213
100.372806385529
100.373033103712
100.373066101362
100.373130933344
100.373141466483
100.372777373212
100.37287126253
100.372988847577
100.373113428158
100.373347472385
100.37340534415
100.373589852466
100.373911729526
100.374063137098
100.374075373216
100.374001384094
100.373835684612
100.373767337939
100.373607293475
100.373570244797
100.373500105341
100.373377077546
100.373189276045
100.372959338094
100.372624574984
100.372504647729
100.372122853945
100.371918377812
100.371767807723
100.37150503005
100.371604075359
100.371491251645
100.371759767628
100.371633149077
100.371749888721
100.371813672225
100.371929292537
100.37188617406
100.372018387366
100.371969902567
100.37203686923
100.371945174128
100.371833245231
100.371698264208
100.371528913647
100.371349274597
100.371176894053
100.370971955807
100.370768379317
100.370510399934
100.370271590068
100.369969346087
100.369645326037
100.369320433163
100.368924656271
100.36845792611
100.368104872325
100.36758752495
100.366939446012
100.366269589469
100.365638491636
100.364745582376
100.363960237622
100.364871498683
100.365700632415
100.366355165963
100.367036077542
100.367614088624
100.368044563435
100.368231694457
100.36786057657
100.367547699175
100.366939934557
100.366270485933
100.365550736797
100.364536849958
100.365385376921
100.365921298468
100.366615639345
100.367171162071
100.367513598168
100.366861549872
100.3662947972
100.365445464521
100.366016333437
100.366553329531
100.367110907283
100.367714138183
100.368226525806
100.368624450542
100.368785416584
100.368271086764
100.367824356943
100.367418667118
100.366974274768
100.366236307688
100.366749803677
100.36734128252
100.367644936616
100.367998895347
100.368391567522
100.368899156642
100.369290670418
100.369578487961
100.369827065008
100.37006602626
100.370318251991
100.370525537025
100.370699548289
100.370866152917
100.370808333403
100.370534427262
100.370206319602
100.369775705269
100.369950001869
100.370079434201
100.370354635138
100.370747704227
100.371014718906
100.370913619042
100.370978093541
100.371098626235
100.370472323987
100.370049177252
100.370399721137
100.369921224423
100.369360350669
100.368623273008
100.367811062066
100.366767551961
100.365676742538
100.365242512807
100.366668458111
100.367883435619
100.368799426661
100.36958717898
100.370167207154
100.370643769312
100.370990704807
100.370775283003
100.371107884587
100.371283881695
100.371378914212
100.371360895622
100.371169637369
100.371264838364
100.370990027274
100.371112273284
100.371846268097
100.370484190949
100.37258097067
100.373024296551
100.37443956711
100.373247920095
100.37316669625
100.372158410517