/*--------------------------------*- C++ -*----------------------------------*\
| =========                 |                                                 |
| \\      /  F ield         | OpenFOAM: The Open Source CFD Toolbox           |
|  \\    /   O peration     | Version:  v1612+                                |
|   \\  /    A nd           | Web:      www.OpenFOAM.com                      |
|    \\/     M anipulation  |                                                 |
\*---------------------------------------------------------------------------*/
FoamFile
{
    version     2.0;
    format      ascii;
    class       volScalarField;
    location    "0.6";
    object      p;
}
// * * * * * * * * * * * * * * * * * * * * * * * * * * * * * * * * * * * * * //

dimensions      [0 2 -2 0 0 0 0];

internalField   nonuniform List<scalar> 
74874
(
100.128372904313
100.130757087833
100.131230458477
100.129820247029
100.135335443865
100.135921834362
100.132763972842
100.134372304245
100.136889327944
100.136962979789
100.134850512183
100.133314413484
100.136598095801
100.136048079235
100.137059455015
100.13724286129
100.136624232959
100.13348552257
100.130576516879
100.130006936585
100.131481351859
100.132798499424
100.131279958009
100.130930306096
100.136371543659
100.136507461852
100.131906773009
100.132172395998
100.133335142232
100.131513826154
100.131651333073
100.133149508146
100.132154298496
100.131854131541
100.1364403463
100.13594252875
100.13084046422
100.131256646455
100.132698666094
100.131119381808
100.129688325038
100.130213779275
100.133120301653
100.136266670424
100.136714206625
100.136472078836
100.13032902606
100.129588665764
100.129194613391
100.128628490803
100.127615731736
100.127621041946
100.126906101427
100.12725376268
100.127520737679
100.128077524893
100.129278275736
100.128766754417
100.127159143315
100.126871823604
100.126604764877
100.126151664225
100.126196019848
100.126733905108
100.126894898921
100.12723058298
100.128783570583
100.129317295992
100.128193088695
100.127676223639
100.12754419175
100.127206594339
100.127868310273
100.127878266963
100.128866564268
100.129483315924
100.12996049355
100.130738894279
100.130283064396
100.131853389348
100.131461865692
100.132604439846
100.132863810431
100.132648677171
100.132081535499
100.131600303723
100.131103508042
100.127947378645
100.126272354586
100.128303283693
100.127264669178
100.123572695216
100.124521642214
100.127133599669
100.126831192078
100.125087740222
100.123329389026
100.124911716438
100.12647442407
100.125824955105
100.125148922789
100.124732893348
100.122912792002
100.121848018666
100.123044719666
100.122989153801
100.121727602056
100.12286585936
100.124845710038
100.125328563761
100.125675028434
100.12668325639
100.125456216213
100.123809542753
100.125452366512
100.127091365708
100.127368157373
100.124697684105
100.123790173273
100.12767379496
100.128727631539
100.126788235825
100.128767393097
100.132329251622
100.132552778064
100.130141516828
100.12990541887
100.1234862792
100.131636739028
100.131230084333
100.125799585725
100.123325443915
100.127963336695
100.128335937898
100.122665097859
100.122898966099
100.125798333421
100.124205000577
100.12303244092
100.121036863037
100.12392364012
100.126499462738
100.12273885836
100.122181984461
100.124420845247
100.120795867041
100.118448054376
100.120632523837
100.12059769403
100.11838620133
100.120768265482
100.124532066168
100.122554328305
100.123402552978
100.127464487072
100.124907154172
100.121615185329
100.123448462059
100.124509161337
100.126083833898
100.123108660977
100.122827776666
100.128911187323
100.128433935355
100.124026142634
100.127056408121
100.133847680154
100.134725945808
100.124421711434
100.151557247821
100.149515249634
100.122095861681
100.121959006082
100.127286474061
100.116827523971
100.118361049739
100.129413546377
100.125786876572
100.12293446931
100.122864619413
100.127770610468
100.117344210803
100.118489318267
100.118747264427
100.118499496769
100.12532313211
100.121587419092
100.121551731955
100.12518557221
100.118628069324
100.118896407417
100.118665126888
100.117256959757
100.11570775635
100.118648949214
100.116405702915
100.107767045732
100.110369942828
100.082143965847
100.078255806772
100.078619281646
100.084388937404
100.115615387741
100.109932856418
100.092889228513
100.085899446421
100.079578727698
100.080333055001
100.085309455036
100.082292020964
100.083257766445
100.086554762858
100.086542123798
100.083209233254
100.08227548257
100.084945373481
100.084125922962
100.077921137013
100.076650599116
100.081179338754
100.079221907898
100.07905301863
100.078052771549
100.078078201746
100.0843033342
100.083508679008
100.08382415336
100.084209734366
100.079475630289
100.080048631042
100.081396561986
100.081372051076
100.080030403967
100.079265495244
100.080256593302
100.079482179995
100.078000997536
100.078033761467
100.084829248145
100.083891588185
100.083553707046
100.084321538524
100.085599918589
100.085543253733
100.084924393733
100.085103144043
100.085356958722
100.085389722044
100.084482732907
100.084200591571
100.084191715444
100.084373394101
100.084013835275
100.083784210128
100.083441898079
100.084365943613
100.08547618927
100.085786065569
100.085041731658
100.084936832847
100.083211373314
100.083499703722
100.083480541551
100.083274937946
100.083428736499
100.083428123064
100.083457349779
100.083320888259
100.085038432783
100.085011995606
100.085255107973
100.085176759986
100.085011636658
100.084850902459
100.083146182298
100.083331659141
100.08347255386
100.08318770792
100.080865604535
100.080917267851
100.08103002736
100.081058108461
100.080972869748
100.08108992441
100.08104022215
100.081089922207
100.081041555558
100.081027262028
100.083300776313
100.08337369508
100.083303685653
100.08330726393
100.080982555551
100.080831831947
100.080912816707
100.080927663329
100.078927702457
100.07891603948
100.078968118074
100.079027243125
100.079086392969
100.079011379022
100.079098230067
100.079066728911
100.079115363395
100.079080377571
100.079068637516
100.079089889167
100.081051572083
100.08095643974
100.07900148703
100.079018820705
100.078907478381
100.078979054328
100.077243963151
100.077202716911
100.077150958954
100.077182564851
100.077225683896
100.07730390782
100.077247269988
100.077327946821
100.077306662156
100.077354844859
100.077336099642
100.077331734627
100.077341835103
100.077257097391
100.077271960853
100.077193102938
100.07539083206
100.07539293468
100.075350451999
100.075249444063
100.07526704615
100.075312432696
100.075416012689
100.075386304781
100.075478035348
100.075457776638
100.07552743277
100.075540590554
100.075547018339
100.075543588359
100.075445497963
100.075457643016
100.073379561406
100.073302183295
100.073270110935
100.073217864741
100.072971146908
100.072982665025
100.073130275865
100.073241022583
100.07322015965
100.073339212191
100.073340185619
100.073445054431
100.073498483965
100.073553620533
100.073539626949
100.07342501919
100.070863003997
100.070778554632
100.070661115339
100.070634649841
100.070572865042
100.069976460983
100.069941721575
100.070369197811
100.070471764511
100.070485825516
100.070638564612
100.070707390505
100.070899337241
100.070962571791
100.071042257976
100.070985739677
100.067161298
100.066984366974
100.066981101963
100.066766429205
100.06656976937
100.066768660271
100.0655327787
100.065388737441
100.066318231458
100.066199265248
100.066360761884
100.066627928808
100.066670407305
100.067033619773
100.0672127728
100.067268351635
100.061195885562
100.061038896328
100.06072923047
100.06085015041
100.060702259431
100.059817492721
100.060700381925
100.058176915707
100.058051625589
100.060012094112
100.059116209427
100.059833400236
100.060104167086
100.060102433779
100.060641888486
100.061027328949
100.038728397969
100.038938382959
100.035676372253
100.035386526468
100.03901509337
100.039592952488
100.034831172654
100.0352998759
100.035216189133
100.035122989113
100.034672436816
100.033572946422
100.038414563937
100.038080480967
100.034829945273
100.035267791118
100.041098115279
100.043898810237
100.043977746133
100.041838066754
100.041620195201
100.043259950203
100.04548195432
100.039270473522
100.02609957535
100.068477901816
100.104121800126
100.103798152996
100.067335944999
100.034536483267
100.03475249052
100.173372745293
100.297889624446
100.223348445503
100.221380745646
100.174569881323
100.159206415145
100.144592980379
100.038261490207
100.044800286452
100.042992155887
100.041012672472
100.150385291051
100.151042183769
100.189830740515
100.128775115074
100.129513824168
100.191202580538
100.152313498782
100.151126509245
100.187498788164
100.124450056685
100.122222558007
100.178343419614
100.144930835855
100.162134213537
100.177158351433
100.297171950588
100.367233438194
100.345569577091
100.342289295181
100.361057129329
100.339370526209
100.292929990029
100.458360739275
100.484601654643
100.491670982086
100.525566111728
100.595724316583
100.599940107555
100.520715083167
100.45374196281
100.387326628024
100.349416255011
100.373413220332
100.371942496347
100.368877206208
100.368984547353
100.369914431938
100.370909085679
100.372187924224
100.374010922845
100.376371478819
100.379116849603
100.381984867905
100.384522620475
100.386133458075
100.384918170465
100.383233244984
100.381235422266
100.379045670299
100.37682926331
100.374602630497
100.372361432244
100.370229352145
100.368363169289
100.366852018892
100.365703344005
100.364850623752
100.364186345848
100.363640614151
100.363203543732
100.362901908676
100.362819497278
100.363020466971
100.363599036352
100.36463459152
100.366143696482
100.367800254669
100.36940659649
100.371028399539
100.372287674652
100.372191943837
100.372138685413
100.371467722694
100.370834827394
100.369078578991
100.367345809461
100.365697450162
100.364295887695
100.363418636355
100.36300755356
100.362940160736
100.363097092784
100.363390033798
100.363767969848
100.364229826351
100.364811170294
100.365580199709
100.366642133492
100.368056684111
100.369810764186
100.371822948193
100.373949068789
100.376046244799
100.378078643809
100.380027250411
100.381773610265
100.38326344095
100.384347213387
100.384879574717
100.386733210957
100.387991135517
100.387351004132
100.386054324419
100.384240698344
100.382071558162
100.379705948067
100.377331621414
100.374992136637
100.372690257121
100.370505957934
100.368579773959
100.366995723753
100.365767289304
100.364837269948
100.364099887722
100.363493862035
100.363023078939
100.362750383953
100.362762045302
100.363108366083
100.36383677863
100.364998857577
100.36658167824
100.368237129102
100.369785030611
100.371306980466
100.37248090279
100.372387221931
100.372840975287
100.373090952995
100.373081552795
100.373322126664
100.373178303747
100.373388754454
100.37323512639
100.373417078892
100.373300338231
100.373314580301
100.373136489931
100.37305246903
100.373000079677
100.372917066635
100.372949627993
100.372886212633
100.373057822043
100.373252349794
100.373235050583
100.373344340172
100.373167771556
100.373317073665
100.373101278499
100.37325130344
100.373009648097
100.373012616407
100.372759598679
100.372619553556
100.37289507514
100.372914040398
100.373150649658
100.373015693227
100.373224564733
100.373106116762
100.373264887101
100.373158082593
100.373137190225
100.373000037838
100.372961021199
100.372924211591
100.372950815356
100.372871919663
100.372999305439
100.373092539354
100.373145439879
100.372991612073
100.373127134129
100.372929173425
100.373054186503
100.372828332618
100.37279390669
100.372497534274
100.372277433085
100.372613337051
100.372681783372
100.372901281033
100.372835243678
100.372966926278
100.37300283918
100.372905822603
100.373079866875
100.373163492813
100.373217855252
100.373302976475
100.373380345959
100.373456577091
100.373315789375
100.373495847172
100.373384463482
100.373410451098
100.373240211339
100.373165349855
100.372959394898
100.372656289038
100.372356657055
100.372204169015
100.372089320024
100.3719729312
100.37188820919
100.371968918031
100.372093916444
100.372269430021
100.372375976417
100.372495925368
100.37284866741
100.372752524921
100.372663162897
100.372630905549
100.372758538496
100.372749690067
100.37238186209
100.372116004096
100.372056639031
100.371948848044
100.372056489357
100.372093566128
100.372341547613
100.372683943706
100.372782840363
100.372841882518
100.372946327495
100.373023763907
100.373110450492
100.373167812812
100.373211908198
100.373266453285
100.373332994398
100.373408947772
100.373437764403
100.373456898592
100.373266702019
100.373222445532
100.372972425882
100.372768084829
100.372518262501
100.372091363769
100.371664191761
100.371324282822
100.371162312774
100.370924335227
100.370951376091
100.371209857667
100.371537448164
100.371958537159
100.371747062989
100.371471304772
100.371139678164
100.370958383033
100.370804554832
100.370639452692
100.370532160318
100.370720546376
100.370948500346
100.371197321759
100.37131338195
100.371342322427
100.371062473158
100.371254812307
100.371721608655
100.371666795553
100.372100331772
100.372371969969
100.372747301995
100.3729871937
100.373033739641
100.373130487835
100.373208035677
100.373287336668
100.373163877463
100.373403095317
100.373259302597
100.373471074326
100.373533150518
100.373385757472
100.373551816477
100.373614696892
100.373524681663
100.373544443178
100.373426832023
100.373212501497
100.37320824206
100.373225133543
100.373311555882
100.373326511343
100.373502001326
100.373473017779
100.373587896283
100.373450372583
100.373510701024
100.373661772799
100.373572671943
100.373592621467
100.373516460486
100.373354641487
100.373295324475
100.372915358495
100.372778757883
100.372675969464
100.372304279236
100.371872126286
100.371536774046
100.370954758054
100.370754795152
100.370469251932
100.370216095786
100.369980165999
100.369768647692
100.369453645985
100.369160959003
100.369085176137
100.369417126782
100.369800272664
100.370054404489
100.370239800969
100.370479930123
100.370697256646
100.370453934966
100.370590701508
100.370418765397
100.370673129279
100.371335003994
100.372579817717
100.372941727019
100.373024724251
100.373256084261
100.373241934486
100.373467724382
100.373331452263
100.373405866377
100.373592675224
100.373642786459
100.373700080267
100.373575749014
100.373718509563
100.373637790991
100.373655952035
100.373581857949
100.373424644798
100.373366796835
100.373040435393
100.372899891382
100.372584539645
100.372222937287
100.371931031164
100.371730479754
100.371183732113
100.371011534726
100.370805562497
100.370648352367
100.370650462649
100.370347164038
100.370056668328
100.369841435626
100.369490477973
100.369682471618
100.370044312514
100.370350118594
100.370527670256
100.370224333067
100.369921027048
100.369510289965
100.369542900118
100.369080131567
100.368642928811
100.368305449548
100.368045908517
100.367849578559
100.368144538032
100.368477652854
100.368828034315
100.369201464829
100.368919138719
100.369077296304
100.369179179928
100.369417926688
100.369528621618
100.370174495276
100.371015314445
100.37235055011
100.37273824992
100.372857545271
100.372944435303
100.373183175604
100.373202424699
100.373275040324
100.37336290451
100.373341526331
100.373319744253
100.373539026803
100.373595784387
100.373473059803
100.373536766714
100.373597001906
100.373743144459
100.373632475496
100.373763854887
100.373683417396
100.373706548214
100.373629775972
100.373523008533
100.373422335783
100.373168723966
100.373007596454
100.37268605213
100.372325361628
100.372069969853
100.371571998212
100.371454746218
100.37126639201
100.37107660067
100.370927424033
100.37094340521
100.370778685695
100.37100336818
100.37071158533
100.370410338572
100.37010252275
100.369761863111
100.369381350947
100.368955230727
100.368542601093
100.367974008198
100.368280033294
100.368812692949
100.369297298933
100.369566771084
100.369853218953
100.370169424335
100.370478973171
100.370495547012
100.370358390986
100.370027305
100.369339872165
100.369309569614
100.369119579519
100.368350195329
100.367741371244
100.366230951121
100.366782145579
100.367667859659
100.368510242083
100.369304746406
100.369763839326
100.369638616616
100.368975218004
100.368068975228
100.367218442607
100.366211548192
100.365289297107
100.364714531211
100.362759100621
100.361392384029
100.363193800869
100.364224360736
100.365028746847
100.365961363396
100.365913334085
100.364440984247
100.363645831036
100.362352782906
100.361017375556
100.360223191504
100.359745836931
100.360800332083
100.362466457425
100.363775853985
100.364406398656
100.365469072978
100.366250675644
100.36710473183
100.368231841112
100.369039222579
100.36980871675
100.370444906951
100.369931073668
100.370366821638
100.370266289348
100.370675574326
100.3701877886
100.369718297347
100.369257600054
100.368769590776
100.368101863763
100.36726231236
100.366019708248
100.365496640112
100.364163276876
100.364229633521
100.36407704887
100.362327890575
100.361797425307
100.360407170545
100.356093124951
100.357275202994
100.35715541535
100.359029500073
100.359912053665
100.363565475395
100.364766375287
100.367603527143
100.368336465715
100.370399448578
100.369597908001
100.368511764939
100.368436108832
100.36841625898
100.368486656328
100.368902573691
100.368108810319
100.366389907135
100.366011427569
100.365952676291
100.366057879277
100.368230989342
100.37027179355
100.37026270664
100.371065915454
100.371565723938
100.371555264331
100.371973285424
100.371723952525
100.371896076759
100.371960311732
100.37202200467
100.371939972649
100.371839733048
100.371672004502
100.371140346266
100.370934958847
100.371106572676
100.371191903291
100.371063973819
100.371273832681
100.371266123885
100.371424770326
100.37174160242
100.371788666828
100.371987289258
100.371681758942
100.371925752991
100.37198333478
100.371652825879
100.371846014784
100.371518386256
100.37152109222
100.371070037501
100.370966473372
100.371426184657
100.371443668736
100.371741934771
100.371604178355
100.371853541902
100.371632419635
100.371827775827
100.371629057396
100.371577718293
100.371477766306
100.371578720603
100.371732615509
100.371614815061
100.371459098546
100.371297084397
100.37096057181
100.370513138624
100.370095985768
100.370477332773
100.370523288462
100.37088504436
100.3708033011
100.371235946553
100.37139407007
100.37159092599
100.371361004296
100.37159026632
100.371650229784
100.371496648411
100.371615159827
100.371248170898
100.371317430781
100.37109196028
100.370472576531
100.370234773138
100.369418945284
100.369598472822
100.369727126546
100.370649840976
100.371090898968
100.371106707394
100.371501452293
100.371259335676
100.371605672566
100.371533619513
100.371316905913
100.371470977261
100.371271678223
100.371049590315
100.370893743255
100.371143095859
100.371263609981
100.371417534648
100.371346141715
100.371208482762
100.370974837599
100.370617137559
100.369960655504
100.369256685949
100.369904006922
100.370037689201
100.370513286401
100.370465403634
100.370929904354
100.371159233008
100.371301360427
100.37106816493
100.371351482731
100.371359922882
100.371250841638
100.3712873877
100.371422145736
100.371011602171
100.371095686382
100.370759715132
100.36998085218
100.370082387376
100.37083700287
100.370822404755
100.371353146114
100.371114571767
100.371245022956
100.371307221941
100.371296348387
100.371336072751
100.371359938464
100.371490445922
100.369909516227
100.370850907519
100.370874952243
100.371131386868
100.371629671941
100.371761607699
100.371765572266
100.372042628452
100.371998310274
100.372119939163
100.372199612606
100.372063393612
100.372168741697
100.37200169093
100.371999851503
100.372063562479
100.372099784956
100.372172456201
100.372327244012
100.372358825925
100.372351123522
100.372040385144
100.371987483976
100.372034632919
100.371818608813
100.371455947737
100.371146704536
100.370435512248
100.369777789459
100.369131813144
100.369417992126
100.369665687069
100.36964538363
100.369554297238
100.369983128027
100.370057461246
100.370213008684
100.370210066001
100.369853275957
100.370223332632
100.370493168427
100.370829757666
100.371293533485
100.37159440527
100.371722266457
100.371771426497
100.371824442417
100.371855829607
100.371923655143
100.372170288748
100.372103826919
100.372330628495
100.372219694384
100.372418697274
100.372636730565
100.372535910552
100.372530124602
100.372237128135
100.372120560147
100.371847776526
100.371365811886
100.370855480371
100.370762616016
100.370960638309
100.371086482611
100.371706511199
100.371253585358
100.371376347556
100.371736539446
100.371883747778
100.372115293397
100.372150264537
100.372303915818
100.372205875888
100.372520008298
100.372381916135
100.372445923886
100.372760311792
100.372671877444
100.372658919304
100.37249408896
100.372299164313
100.372527451868
100.372591911452
100.372689424598
100.372801295561
100.372861830056
100.372819248846
100.372667932089
100.372721804489
100.372453182003
100.372435816381
100.372217737267
100.371792737073
100.371780229731
100.371227524411
100.370739731986
100.370657563556
100.370412410093
100.370320055651
100.370296860081
100.370243566737
100.371139800874
100.371684562119
100.371752103988
100.371995142444
100.372015888666
100.372329303049
100.372523807916
100.37228709747
100.372714272752
100.372678653355
100.372819299883
100.372921185393
100.373039131463
100.37311355134
100.373203864569
100.373274379274
100.373360753637
100.37342666357
100.37349739222
100.373554068776
100.37361630807
100.373665018939
100.373721923184
100.3736573688
100.373788764969
100.373684754236
100.373808474042
100.373742717882
100.373775012843
100.373682174346
100.373641984353
100.373559769959
100.373518713942
100.373341043136
100.373140150611
100.372822584376
100.372479122413
100.372241450043
100.371771950559
100.37168849513
100.371504774871
100.371398720202
100.371383625362
100.371142242091
100.370995561611
100.371226716384
100.371240320462
100.371291992823
100.371398902546
100.371150550442
100.370903308461
100.370643813949
100.370348655246
100.370020321016
100.369554531351
100.369811612193
100.370210548838
100.370499937266
100.370770446102
100.371035383791
100.370996897749
100.370709864838
100.370426914318
100.37012292274
100.369720753351
100.36918271341
100.369568413512
100.369050613588
100.368523380988
100.368038522888
100.367597000482
100.366862306115
100.367260331969
100.367910276404
100.368275266968
100.368742340809
100.368713058647
100.368537564711
100.368218715221
100.368035801775
100.367938502765
100.368154799315
100.367719447899
100.368872358653
100.370918372573
100.371256934529
100.371616172045
100.37163808677
100.372700284816
100.37259870959
100.373125529751
100.373210512278
100.373413885638
100.373395993272
100.373468931758
100.373654930946
100.373707568979
100.373763969155
100.373808829131
100.373713003684
100.3738302035
100.373743258745
100.37385093377
100.37379413523
100.373818929812
100.3737214004
100.373682944453
100.373586546833
100.373391965829
100.373253550467
100.372951593279
100.372663086727
100.372414276336
100.371992819005
100.37188381431
100.371559205104
100.371643009307
100.371447647637
100.371560471929
100.371523397033
100.371649516729
100.371428200146
100.371452950748
100.371556567645
100.371661304041
100.371608087425
100.37172124288
100.371475111353
100.371240238342
100.370990125889
100.370699343459
100.370386181201
100.370025008592
100.369561529672
100.369140247811
100.368728093242
100.369105635439
100.369561694687
100.369842228579
100.370218746497
100.37053547198
100.370818484419
100.371075694765
100.371335677567
100.371362987333
100.371250033129
100.370729091103
100.371115299618
100.370508059056
100.370082545572
100.370588489516
100.370336049951
100.370814081897
100.370544416526
100.371180668206
100.36994377389
100.369444406749
100.369000204183
100.368586931641
100.368141783313
100.36764904515
100.367000690347
100.366137815355
100.365259945066
100.363478592699
100.363107821477
100.362223904845
100.361791588821
100.360840897685
100.360011007754
100.359617931202
100.359276428801
100.353526334077
100.354217238156
100.354119282873
100.354540209216
100.354579391924
100.355948144838
100.356461480043
100.355672635237
100.35453259015
100.355653754533
100.355191953713
100.355561925484
100.356409104801
100.356450597804
100.355334489165
100.355425495312
100.358409445187
100.353996044355
100.353467151873
100.355503889607
100.355750729184
100.35649449125
100.357715546777
100.359225750379
100.359861906323
100.35982014212
100.357958122134
100.35856908915
100.359469890627
100.35844848779
100.357098537532
100.356953576625
100.35855263146
100.360125838222
100.36198734246
100.363600591721
100.364315831605
100.362566255454
100.363947478062
100.365582876341
100.3660784478
100.367521152897
100.366576839116
100.367796966032
100.368782790509
100.36965177327
100.37031454308
100.370887270538
100.371048529654
100.371402341721
100.371324781174
100.370592512244
100.371058449536
100.371017356748
100.371583230174
100.370487547749
100.368289526747
100.367736097901
100.367250881787
100.366845405584
100.366452363088
100.366043876445
100.365557475022
100.36490712561
100.36417375791
100.362965527567
100.362708234907
100.36253587547
100.362412546821
100.362596067054
100.36193279393
100.362024536599
100.363275004616
100.363801722087
100.364856581857
100.366411737964
100.368439042909
100.368799272483
100.366878539751
100.365250363712
100.363999571436
100.363313422287
100.363082147094
100.363119854519
100.363303780033
100.363559747192
100.363866286532
100.364240840745
100.364727371971
100.365396403174
100.366330058381
100.367585288466
100.369166590779
100.371025548271
100.373047686576
100.375059255075
100.376904442141
100.378555457454
100.380008626415
100.381252615411
100.382174558001
100.382631583953
100.382591133921
100.384850191296
100.386715322285
100.387981985785
100.388549810224
100.388553963984
100.387893550687
100.386554785797
100.384672729079
100.382418968883
100.379957115852
100.377491875367
100.375085314896
100.372746919608
100.37053624164
100.368585581277
100.366971880265
100.365708820672
100.364740983489
100.363965093015
100.3633344657
100.362874445097
100.362669822074
100.36279235377
100.363277757252
100.364131883279
100.365385164642
100.367017667676
100.36868169633
100.370194302377
100.370636753782
100.372001127229
100.37294175992
100.372838761574
100.373155321105
100.37283104641
100.373437502597
100.373518297157
100.373493489414
100.373565409241
100.373543542483
100.3736119974
100.373681968529
100.373739635898
100.373853626124
100.373765769942
100.373873429271
100.373796980443
100.373894668372
100.373849424026
100.373868783703
100.373783574046
100.373745991041
100.373657493504
100.373467004224
100.373351924036
100.372993330624
100.372838564094
100.37264687018
100.372529186948
100.372275659475
100.372127472614
100.371821474639
100.371846870065
100.371769851564
100.371743213553
100.371843449431
100.371772081457
100.372022590163
100.371857105725
100.371604761895
100.371803254738
100.371863076217
100.371904251363
100.371993127408
100.371791875108
100.371764188292
100.371430052164
100.371173367105
100.370916996353
100.370604180557
100.370272294935
100.369879804333
100.369588929115
100.369789237415
100.370194166437
100.370520584252
100.370839040284
100.371098180163
100.371361199056
100.371627083831
100.371632295144
100.371690743426
100.371552053992
100.371326778358
100.371509549675
100.371281514606
100.371524557514
100.37099417405
100.371421464741
100.371102325346
100.371006229571
100.371224024734
100.371414634341
100.371265832572
100.371886329321
100.371071059728
100.368955110004
100.367295083733
100.366182388769
100.365444131366
100.365018951209
100.364627891821
100.364298149455
100.363910913831
100.363558859719
100.363183096518
100.3628783228
100.362444120395
100.362288853877
100.362247969855
100.361998790713
100.362412856252
100.362746611049
100.363048265355
100.362992338254
100.362830036678
100.363096669958
100.362886122613
100.362749729282
100.362086214033
100.362485127353
100.362630798733
100.362424572217
100.361624574736
100.360147329276
100.360089806005
100.3591711241
100.35916910726
100.355040515001
100.354885470967
100.354611436348
100.356202245987
100.356036328276
100.357200745328
100.357962161469
100.357370352988
100.356747907962
100.357469892161
100.357653402035
100.35749756887
100.357750019416
100.358159334933
100.357516772402
100.36009753739
100.360107653488
100.358517996297
100.359881298927
100.359917932396
100.356306994749
100.356380759429
100.35550540143
100.358762537385
100.360515795159
100.363511863953
100.366476076535
100.368023292433
100.368698864112
100.369928959711
100.370687950648
100.37083814628
100.370769990155
100.371196435864
100.37104369674
100.371262110989
100.37124475931
100.371009756058
100.371108093893
100.370820333959
100.370544480398
100.370884119751
100.371062392578
100.370987004017
100.370697578047
100.370272880751
100.369671193467
100.370378434294
100.370431902234
100.370822523826
100.370767283437
100.371019968199
100.371239909432
100.371238651461
100.370994158684
100.371247444059
100.371310418628
100.37091457551
100.371108741138
100.371232551716
100.37078614938
100.370837155422
100.370297334801
100.369293983054
100.368096410285
100.367585929868
100.365711141708
100.367362948443
100.367217035281
100.36851378529
100.369501008307
100.370488118143
100.37089632608
100.370856916169
100.371218049088
100.371050176831
100.371389660126
100.371226789957
100.371227716935
100.37126286088
100.37119716639
100.371143501175
100.371018657057
100.369930179845
100.370808098353
100.370971610748
100.370004590988
100.367437301292
100.368624192208
100.368923965821
100.370244758937
100.370892718421
100.370933441532
100.370410616267
100.36782931416
100.36921512498
100.369689006461
100.37060320183
100.371004094122
100.370709439851
100.370462718409
100.37025342685
100.369834120974
100.368640172074
100.369576222707
100.370588181558
100.370667555918
100.370736705595
100.369200783821
100.369995051951
100.370197710925
100.370857332688
100.371292163587
100.371404098478
100.371420973834
100.371494353894
100.371538446273