/*--------------------------------*- C++ -*----------------------------------*\
| =========                 |                                                 |
| \\      /  F ield         | OpenFOAM: The Open Source CFD Toolbox           |
|  \\    /   O peration     | Version:  v1612+                                |
|   \\  /    A nd           | Web:      www.OpenFOAM.com                      |
|    \\/     M anipulation  |                                                 |
\*---------------------------------------------------------------------------*/
FoamFile
{
    version     2.0;
    format      ascii;
    class       volScalarField;
    location    "1.2";
    object      p;
}
// * * * * * * * * * * * * * * * * * * * * * * * * * * * * * * * * * * * * * //

dimensions      [0 2 -2 0 0 0 0];

internalField   nonuniform List<scalar> 
80212
(
100.33860487052
100.337991960999
100.337940852739
100.3406983329
100.344249674915
100.344225661229
100.344542646446
100.344463558131
100.344984042289
100.346495606756
100.345821935802
100.344858886945
100.34517261598
100.346290997644
100.346912390663
100.345133507123
100.344562300578
100.344547664654
100.344228463404
100.344242900444
100.344811352487
100.345039040811
100.345917329668
100.347672492714
100.346078135448
100.34401010852
100.343060273917
100.342880852289
100.343313075064
100.343680358157
100.346288806975
100.346076056043
100.345330229153
100.344946422248
100.343513425471
100.343810137736
100.344537023541
100.343753891506
100.345204745012
100.347174761157
100.347095913106
100.345120310988
100.343705372824
100.344521001508
100.34380024523
100.343498673939
100.344925646864
100.345311831029
100.346048455334
100.346284655019
100.343679825875
100.343316381245
100.342891853956
100.34307252041
100.344022425061
100.346090010811
100.347682797758
100.345926668812
100.345052866576
100.344825424843
100.341733775252
100.342049360094
100.341502618664
100.341743463877
100.341483414281
100.341387360579
100.340950590852
100.340685643456
100.341179269954
100.341127124665
100.341478413842
100.3413929786
100.341180482964
100.341705267296
100.341012935299
100.340561446941
100.340806954184
100.340792912666
100.340865586299
100.340594471515
100.340587874407
100.340858059924
100.340783313083
100.340802130541
100.340574969676
100.341048316759
100.341740738141
100.341210799001
100.341408617208
100.341481429523
100.341121199578
100.341170548165
100.340673270568
100.340941092378
100.341375316434
100.341467736949
100.341729962319
100.341489302796
100.342032695515
100.341718151765
100.340694837598
100.340786589963
100.341970936977
100.342391644279
100.341834616775
100.342472024257
100.341962071019
100.341721447437
100.341884236841
100.342267503196
100.342654263686
100.341894925624
100.342432078021
100.342000491648
100.340802244736
100.338032995211
100.339625789472
100.337186351643
100.337266995822
100.337406239025
100.340119574837
100.338440416063
100.336465703769
100.337528396487
100.33847751855
100.33859496428
100.338299675778
100.339232105972
100.339422071161
100.338309654553
100.338640881385
100.338531039809
100.338487118526
100.33819679572
100.337059932114
100.336439610304
100.338285933633
100.337629127147
100.336668883254
100.336658794509
100.337631485665
100.338259942971
100.336413484028
100.337060297558
100.338248302714
100.338541956669
100.33858214258
100.338667860272
100.338313146397
100.339412534537
100.339221581528
100.338288415183
100.338583757539
100.338464283274
100.337514145405
100.336449079217
100.338425846876
100.340099053449
100.339273207448
100.33793157667
100.337999057227
100.339568175424
100.340713964509
100.338871979783
100.336965801645
100.337724462514
100.338534787117
100.338628868365
100.337919739227
100.337154087803
100.339027981872
100.340810639592
100.337197454508
100.328023773141
100.328583985095
100.328727834243
100.328282049444
100.329121996959
100.337475772571
100.337856068494
100.337886353359
100.338728050062
100.340432679544
100.337839656632
100.337041750033
100.335850182001
100.339066247836
100.336794972387
100.336234932355
100.334903220612
100.336053063057
100.335534255256
100.339460477888
100.339504864421
100.335561866847
100.336136799405
100.335260030358
100.336376953348
100.334855720606
100.337456856429
100.337969617989
100.338490369629
100.33693068921
100.339184153214
100.335875702133
100.33702873883
100.337826127252
100.337452301323
100.337378611902
100.337242656445
100.337179951693
100.337200727223
100.337000664447
100.336975351943
100.328927569346
100.327411695161
100.327124865896
100.327397592338
100.327431180433
100.327200438295
100.327556542713
100.32764801125
100.329004467818
100.328884475341
100.329071220626
100.330103242305
100.335256362832
100.334655438992
100.331290548689
100.329610963995
100.328519234285
100.328607736044
100.33046032632
100.330002078138
100.329966218542
100.330379744425
100.329997804915
100.328981336978
100.328831966524
100.328966356625
100.329095013727
100.328260289572
100.328713773914
100.328583621904
100.328045242629
100.328957590493
100.327413642759
100.327985771147
100.327992907514
100.327973644258
100.328100979105
100.328115151618
100.32804523636
100.328154893247
100.328256432416
100.328427141044
100.327819013935
100.328129855674
100.328382545837
100.328420265965
100.328397719378
100.328685672233
100.328961062222
100.328908212153
100.328477605663
100.328384789594
100.328030302312
100.327755491956
100.327600396333
100.327516837311
100.327166377169
100.327412926221
100.327381284242
100.327110354131
100.327943240635
100.327798984967
100.32781780644
100.327829489098
100.327830390036
100.327939976865
100.327959353328
100.327942529136
100.328010244089
100.328002093685
100.328115775103
100.327989034822
100.327950811487
100.327893089702
100.327995348115
100.327992169046
100.328667323404
100.328305662094
100.32831546754
100.328309895904
100.328376441103
100.328205945268
100.328103571306
100.328002368117
100.328073990435
100.328066351843
100.32789230914
100.326867713059
100.326800373998
100.326847147771
100.326863212345
100.326850023326
100.326937805195
100.326964032494
100.32696055144
100.327051169963
100.327010848655
100.327072467585
100.32699006122
100.326992922452
100.326951426342
100.326991872162
100.326989506373
100.326947821327
100.32698048619
100.327930426968
100.327936371458
100.328055593259
100.327937809283
100.327937664073
100.327876900595
100.327896815727
100.32687119955
100.325680843513
100.325673336612
100.325642326081
100.325699602163
100.325726641543
100.325720927181
100.325791208384
100.32582789745
100.325834153599
100.325939556042
100.325927737035
100.325981194649
100.325942326294
100.325982963685
100.325964454235
100.325990976489
100.325964416042
100.325902584368
100.325891955118
100.325816333787
100.326929881506
100.326994997404
100.326908437484
100.326942611362
100.326859768025
100.325670485753
100.324525273783
100.324530357975
100.324523445133
100.324506632038
100.324581892374
100.324628993731
100.324640525086
100.32471862488
100.324770914709
100.324789516689
100.324919368733
100.324933350995
100.324993827652
100.324983149019
100.32504572284
100.325038050964
100.325069124634
100.325040841317
100.324956184971
100.324909403303
100.324797088275
100.324783213978
100.324688458792
100.32465728886
100.323482360787
100.323297226074
100.323306917645
100.323304433793
100.323281363212
100.32340257645
100.323481578381
100.323513160495
100.323623006274
100.323697399782
100.32371908318
100.323897140184
100.323934523188
100.324008094783
100.32401840331
100.324119483488
100.324115572805
100.324180329807
100.324170399488
100.324090349374
100.324004018462
100.323778294363
100.323685337484
100.323554425487
100.322173204299
100.322031250952
100.321788970194
100.321817719824
100.321830704479
100.321765154646
100.321992726149
100.322123048652
100.322169130856
100.32234514429
100.322451130571
100.32245072992
100.322687889029
100.322764867714
100.322869850901
100.322929829683
100.323105586883
100.32308882992
100.323260186497
100.323240867346
100.32304764385
100.322927512171
100.322572210786
100.322375207775
100.320610445828
100.320330599679
100.320058154465
100.31965739766
100.319785162111
100.319857582671
100.319686869297
100.320145775385
100.320350031988
100.320378874502
100.320677019758
100.320808678047
100.320677090331
100.321065290795
100.321209061702
100.321355359929
100.321542711929
100.321941880366
100.321808292777
100.322147735907
100.322082998776
100.321632345087
100.321577664653
100.320972743404
100.318693655429
100.317782929482
100.317383762913
100.316986899038
100.316305924009
100.316664103564
100.316841220736
100.316543170664
100.31749612397
100.31782292675
100.31768828704
100.318252072021
100.318354926263
100.318026956654
100.318621692377
100.318742559459
100.318893726888
100.319544227182
100.320392449797
100.319905583135
100.320729480033
100.320606158621
100.319540274198
100.319821663844
100.3180958316
100.315356284465
100.311694928149
100.311973292184
100.311388760041
100.309884602831
100.311084306937
100.311348722293
100.310829691656
100.312818674822
100.313419824607
100.31276892072
100.313885142652
100.313864837004
100.312803789609
100.314111206657
100.314021747025
100.313425219132
100.316693904108
100.318752812043
100.317291493323
100.31900584997
100.318797550054
100.316694994668
100.314069264006
100.308597974257
100.303279077647
100.301593199722
100.304659017838
100.303877661074
100.300485043721
100.303015943692
100.30367710954
100.302692087222
100.306295475358
100.307499006126
100.305972382596
100.30795500535
100.307637999196
100.305164456342
100.307987961759
100.30799836016
100.304131854139
100.305020230118
100.309857045068
100.314895262112
100.309858938441
100.308515652218
100.308163498043
100.309141883834
100.322632182156
100.323820493219
100.321775039289
100.315213598962
100.315714135238
100.313544468324
100.310616716917
100.312889847224
100.314136901767
100.314793496699
100.317584104082
100.319504275581
100.320000136449
100.320925154863
100.319988547852
100.317493717284
100.319181191017
100.320000550887
100.318668232071
100.323964139521
100.32531785731
100.323195938779
100.328554878547
100.327966265198
100.367051100917
100.362844543531
100.358536759345
100.356738775811
100.350013871691
100.346273736785
100.342633349589
100.345407656327
100.341828409571
100.345154643205
100.348323790729
100.360491210913
100.383001989241
100.387118611258
100.368010803318
100.350766261753
100.346391629916
100.394872226552
100.432079758106
100.416477752526
100.423423599825
100.435598829789
100.421744659785
100.406932103944
100.357605363772
100.354957006635
100.351387233427
100.354933676655
100.349816004608
100.351500731146
100.353789892983
100.359105199508
100.360088941703
100.363313213163
100.36722443508
100.408836386945
100.408956364105
100.424591999112
100.412749032096
100.403861951683
100.3988666678
100.394321949327
100.401053446626
100.381751826146
100.377254829204
100.392614338845
100.382125157209
100.392476369388
100.398251331426
100.40445773838
100.417371815744
100.450211839699
100.45155009267
100.459682043505
100.471520885422
100.449859542336
100.449672602481
100.442049418254
100.40675348594
100.395325095667
100.415682297833
100.445817775396
100.464383768773
100.476854820687
100.480002112539
100.48154289126
100.484530420998
100.485359908473
100.484060644252
100.483228586017
100.483443257032
100.484540771104
100.486471136537
100.488978601393
100.490577263096
100.490345493606
100.48829815045
100.487721078182
100.48851403738
100.488926608674
100.488583629316
100.487074727292
100.485102518673
100.480968108624
100.482441261936
100.487768598197
100.508349225591
100.504347458905
100.463898045954
100.42413230842
100.380493560939
100.356113979854
100.372405671571
100.3724745964
100.370769413054
100.370931386878
100.371884649632
100.372911387503
100.374007711631
100.375296357486
100.376727477391
100.378124427108
100.379298572755
100.380119622419
100.380509437871
100.380058657667
100.379516971709
100.378840225151
100.378003917867
100.376958959597
100.375613447642
100.373948206943
100.372076668309
100.370180136069
100.368469262193
100.367061334574
100.365966816855
100.365138943778
100.364538296815
100.364200136577
100.364193936502
100.364572085319
100.365390706653
100.366707220846
100.368427468914
100.370185673381
100.371525310123
100.372046127258
100.372017056856
100.372082239766
100.372068331945
100.372082731798
100.372106766027
100.372123504738
100.372152704662
100.372210194139
100.372377262989
100.372520518809
100.37258306057
100.372642111675
100.372598530621
100.372383861078
100.37227688225
100.372223404407
100.372214955563
100.372353548893
100.3722796222
100.372133669497
100.372097982394
100.372070980794
100.372042643924
100.372047047437
100.372013144395
100.372012732886
100.372020495093
100.371978941287
100.371855338315
100.371908565301
100.371967565838
100.371971266507
100.371969452257
100.371994806071
100.372024333921
100.372039656218
100.372047329795
100.372187140369
100.371990840197
100.372035968588
100.372055683382
100.371941815766
100.371913554976
100.371966503697
100.371959379485
100.371919915101
100.371904444757
100.371898164273
100.371887821394
100.371807078291
100.371789961127
100.371494415016
100.370901426386
100.371472655971
100.37176198093
100.371747732866
100.371818745001
100.371822935304
100.371841582873
100.371860861127
100.371899413373
100.371859354051
100.371940176288
100.371995240671
100.371991474477
100.371821882715
100.371804126056
100.371818999993
100.371752661141
100.371661161608
100.371726786214
100.371665566913
100.371795885805
100.371860089382
100.37186977933
100.371816416511
100.37182271345
100.371782065524
100.371780107276
100.371758637315
100.371755794996
100.371683245519
100.371682073313
100.371418238207
100.37067997152
100.371397505181
100.371652456711
100.371645051422
100.371703588407
100.371701653721
100.371705222162
100.371744316674
100.371752365432
100.371736882838
100.371804235999
100.371774406133
100.371601156558
100.371619258207
100.371701104344
100.371589582004
100.371655497544
100.3715984448
100.371727477893
100.371670889533
100.371702145518
100.371701077393
100.371652997031
100.371681796037
100.371655892191
100.371645305319
100.371606624313
100.371595613956
100.371365465228
100.370641228943
100.371386153541
100.371591348085
100.371591269849
100.371612068004
100.371628783632
100.371629340333
100.371643779435
100.371638273844
100.371593439623
100.371615518121
100.3715735909
100.371574774664
100.371556945459
100.371344025235
100.371226039641
100.371149135399
100.371360940327
100.371251334359
100.371484767319
100.371538754809
100.371544433523
100.371565229164
100.371615441845
100.371604876204
100.371605734235
100.371588572594
100.371577169901
100.371575279196
100.371398582222
100.370599622355
100.371491895074
100.371571048619
100.37157449507
100.371565976617
100.371585051054
100.371558177142
100.371620783757
100.371597234823
100.371516649996
100.371510460428
100.371462955489
100.371323899155
100.371275150928
100.371479986419
100.371520710707
100.371553699102
100.371517262102
100.371465631741
100.371312544454
100.371149513706
100.370705603662
100.370324754681
100.370788986168
100.37071829441
100.371210587578
100.371077406769
100.371338611052
100.371485886282
100.371528620866
100.371597761386
100.371591381435
100.371564309777
100.371534423723
100.371588664422
100.371594038511
100.371557826504
100.371569605366
100.371533653175
100.371278816209
100.370233160079
100.368636401743
100.37053193258
100.371404328594
100.371526476122
100.371573731575
100.371567633232
100.371594174818
100.371595087003
100.371546009001
100.371631373238
100.371654817741
100.371539527365
100.371552495466
100.371490503624
100.371340877059
100.37113439734
100.371438139277
100.371537187768
100.371590579719
100.371616201081
100.3715610792
100.371390247816
100.371089557111
100.370665704976
100.370952527357
100.371349304627
100.371210493365
100.371516253062
100.371642933277
100.371694829873
100.371641351623
100.371723625543
100.37167966997
100.371583985511
100.371543198544
100.371604073866
100.371556189247
100.371577628399
100.371534073661
100.371456490995
100.37069739449
100.368893577842
100.371027697143
100.371543358698
100.371577444775
100.371583024992
100.371640762632
100.371652860234
100.371605750939
100.371598684733
100.371526399678
100.371270756685
100.370510974032
100.368928610699
100.367410318069
100.369719662949
100.370954150074
100.371392568025
100.371555738297
100.371614431508
100.371625244232
100.37163378311
100.371712184059
100.371781895652
100.371698888422
100.371754730485
100.371713343483
100.371594384142
100.371424239785
100.37168090532
100.371780583516
100.371776726255
100.371796049162
100.371828734141
100.37168900556
100.371422295123
100.370959151363
100.371482267928
100.371611538979
100.371828184229
100.371778306956
100.371878923538
100.371853191049
100.371699479117
100.371795406541
100.371798786014
100.371619106874
100.371610925418
100.371650463385
100.371674647168
100.371587055717
100.3715517211
100.371457568348
100.371194027914
100.37011151171
100.368420226336
100.370847053486
100.371431357066
100.371464399709
100.371536803379
100.37155780604
100.371649396363
100.371607616036
100.371595463043
100.371560915359
100.37178653681
100.371759470998
100.371781264323
100.371849246852
100.371759744245
100.371506835154
100.370942101674
100.371549659833
100.37161181962
100.371859095077
100.371819482581
100.371873947286
100.371823280633
100.37167440985
100.371747006318
100.371597166372
100.371567398957
100.371505375361
100.371508706818
100.371445077394
100.37137542906
100.371251390079
100.370597530431
100.368770120522
100.367685281524
100.370009823601
100.37113143009
100.371323464548
100.371384127
100.371448121344
100.371455128172
100.371526736214
100.371514136193
100.371728763968
100.371741677043
100.371785623623
100.371910488233
100.371900163146
100.371657327008
100.371143775428
100.371700197924
100.371974286273
100.371946755496
100.371960846817
100.371952546883
100.371825957741
100.371702485316
100.371718520462
100.371573552117
100.371510343121
100.371474257824
100.371418868568
100.371400670038
100.371331854856
100.371293631721
100.370501740757
100.369101867345
100.371128791024
100.371370755834
100.371369649794
100.371378794384
100.371454299846
100.371465608648
100.371499797383
100.371715376685
100.371708718197
100.371709196926
100.371648049144
100.371840404647
100.372007048738
100.372081653888
100.371890457965
100.371316674428
100.371817365681
100.372037655955
100.371980024667
100.371828890385
100.371786006323
100.371994018554
100.372035736562
100.371801083925
100.371322627604
100.371831234229
100.371892713554
100.371997481539
100.372050512253
100.371973717392
100.371849299332
100.371698803326
100.37169511577
100.371740296528
100.371562720757
100.371457441351
100.371476014919
100.371481119268
100.371441311854
100.371409997705
100.371353510101
100.371305866611
100.371120715373
100.369556478257
100.36848028955
100.370879394518
100.371414522205
100.371345566555
100.37138877845
100.371429463895
100.37148117013
100.37150289743
100.371492271277
100.371531610047
100.371543081902
100.371731397382
100.371695892502
100.371766071623
100.371685514249
100.371853154214
100.371974898016
100.372022276264
100.371870667262
100.371285069655
100.371713444282
100.371926417291
100.371919550932
100.371803065091
100.371795554425
100.371921026742
100.37187512974
100.371623603464
100.371091015241
100.371594958079
100.3716977116
100.371841892475
100.371902047847
100.371908976263
100.371850977116
100.371762864672
100.371752425732
100.371785420719
100.37163699289
100.371535189978
100.371531597418
100.371514125472
100.37145873227
100.371441278613
100.371360205043
100.371293586091
100.370695303295
100.36894088445
100.368188795797
100.370323277434
100.371274728049
100.371401482079
100.371488474497
100.371512790479
100.371522354917
100.371583285947
100.371633285573
100.371578326447
100.37157591056
100.371555877613
100.371600706865
100.37147843669
100.370846889453
100.369838502162
100.371397457817
100.37164590086
100.37164253601
100.371641311614
100.371635377955
100.371708109618
100.371652204532
100.371834283917
100.371782343335
100.371869091501
100.371784699187
100.371878205152
100.371919775793
100.371881003259
100.371625062657
100.371775165864
100.371860208703
100.371825211316
100.371914069995
100.371944822816
100.37187454002
100.37167073808
100.371204802288
100.371458280218
100.371740598305
100.371835904951
100.371823988851
100.371803005573
100.371819835634
100.371697996549
100.371693977596
100.371772537685
100.371693491555
100.371722850824
100.371696356706
100.371702647021
100.371454058406
100.370513717628
100.37019871278
100.371454270148
100.37173763797
100.371773335345
100.371789256334
100.371766833754
100.371835410716
100.371729040522
100.371907377727
100.371890496795
100.371880923834
100.371902824617
100.371807068798
100.371555935592
100.371093482963
100.371377930182
100.371654267649
100.371774889289
100.371797985513
100.371838563918
100.371801670179
100.371787727468
100.37178828197
100.371848508492
100.37179543847
100.37181325375
100.371802130493
100.371814419528
100.37160651857
100.370968305902
100.371006900036
100.371728472165
100.371825990721
100.371836251609
100.371832855348
100.371832651046
100.371811525768
100.371844453556
100.371798695084
100.37188671351
100.371843698621
100.371837205374
100.371712018615
100.371491825645
100.371049828626
100.371378073015
100.371623477087
100.371750377516
100.371773661538
100.371816616068
100.371859492657
100.371818855195
100.371802860995
100.371678814072
100.371465901648
100.371119479811
100.371404886804
100.371649197546
100.371767577544
100.371779788472
100.371827371268
100.371806689296
100.371828238524
100.371861717374
100.371836963081
100.371857901191
100.371867927915
100.371871356948
100.371880170959
100.37189459582
100.371472301323
100.371672116257
100.371915986676
100.371917625353
100.37192516647
100.371907705325
100.371887179358
100.371860042031
100.371874794383
100.371825738555
100.371861357181
100.371819623692
100.371816186701
100.371705049801
100.371553912919
100.371241002277
100.371503453704
100.371682882021
100.371791619401
100.371801181504
100.371845463624
100.371882559796
100.371844822247
100.371833109639
100.371756692258
100.371669757421
100.371406261784
100.371596447612
100.371742232183
100.371841636944
100.371835778965
100.371879191736
100.371850041208
100.371867289382
100.371894371613
100.371889172859
100.371922735121
100.371941660222
100.371964167086
100.371995136448
100.371997133005
100.371921167877
100.372032835191
100.371418661668
100.36983844188
100.37036225773
100.368452542225
100.369210887018
100.367506229803
100.368469737748
100.367065942003
100.366251139003
100.367030830237
100.366216475335
100.367286188928
100.366376394056
100.365729992285
100.366710348557
100.366044014017
100.365680815975
100.36688491523
100.366725905814
100.366721926583
100.368600802059
100.36881917522
100.369044711358
100.369364847083
100.369731923571
100.37111477389
100.370823941378
100.37124006256
100.371617067867
100.371864097069
100.372193012161
100.372111019488
100.372180806751
100.372201775452
100.372233726669
100.372253204189
100.372295233094
100.372339789656
100.372499384141
100.372662526387
100.372849244102
100.372943811297
100.372959489343
100.37280632903
100.372737538495
100.372545343177
100.372285234475
100.372187470381
100.372253024858
100.372324791975
100.372568868043
100.372342238773
100.372217348213
100.372135563533
100.371956312127
100.371705277348
100.371318257738
100.370978416847
100.371145847638
100.371242914707
100.371117230382
100.370942978743
100.371099342158
100.371167744407
100.371364257195
100.37148345891
100.371439681448
100.371524913761
100.371700595438
100.371690192069
100.371793510893
100.371730365023
100.371895009579
100.371759527687
100.371823140998
100.371881621855
100.37193564036
100.372018074389
100.372074392188
100.372130018655
100.37215493886
100.372179748232
100.372203698798
100.372221304478
100.372316098165
100.372511881732
100.372690453993
100.372792186205
100.372815264159
100.37260604929
100.372392817842
100.372126821107
100.372114578037
100.372152129867
100.372114884903
100.372166715237
100.372375154868
100.372439897821
100.372610938801
100.37277039252
100.372954686875
100.373071829288
100.373091638368
100.373018404305
100.372820518895
100.372585511722
100.372442842443
100.372037277278
100.371601754045
100.37115478463
100.371288939067
100.371422649847
100.371361914119
100.371232803561
100.37115302252
100.370371259868
100.369892335621
100.369740528552
100.369673705066
100.369524496422
100.369723487339
100.370064000779
100.370238816855
100.370292915996
100.369937873909
100.37032326573
100.370611085189
100.3707057254
100.370492405396
100.371675281034
100.371871178442
100.371846184581
100.371936932945
100.371958294567
100.372058258636
100.372104530057
100.372110108517
100.372129791076
100.372105701572
100.372164589966
100.372189621554
100.372227950644
100.372263493998
100.372294729352
100.372313381278
100.372388144084
100.37245310507
100.372525338282
100.37270080307
100.372885722666
100.373095671585
100.373210585974
100.373229165786
100.373183804298
100.37298921658
100.372743915449
100.372349080221
100.371908184492
100.371442165291
100.371292629901
100.370566414794
100.370197795041
100.37006935614
100.369963913344
100.369857731375
100.369612866258
100.36966140018
100.370019515859
100.370281370192
100.370328649647
100.370444471976
100.370126850443
100.370527529798
100.37078614851
100.370550014507
100.371255358979
100.371715770118
100.372137702777
100.372233790242
100.372212525941
100.372177751742
100.372267524416
100.372322468259
100.372361783847
100.372435971577
100.372464261885
100.372526805287
100.372590157385
100.372797048302
100.373004489003
100.373209289316
100.373330641044
100.373357076927
100.373306942967
100.373117260086
100.372857107086
100.372476648068
100.372035313261
100.371544967006
100.370850245039
100.370540872536
100.370402533421
100.370031951204
100.369773736143
100.369668348992
100.36949754011
100.369286309098
100.369516167766
100.369793045234
100.36951273604
100.369386326282
100.369168810085
100.368897063763
100.36864703589
100.368459162508
100.368311520611
100.368249181928
100.368492389363
100.368749081853
100.368941909172
100.369185971478
100.36936784303
100.368998954302
100.369091773486
100.369386434945
100.369457505903
100.370325593861
100.370971866052
100.371734564486
100.372064735214
100.372115163231
100.372185696578
100.372200960643
100.372343200226
100.372252510276
100.372271171543
100.372318064536
100.372383422968
100.372441542946
100.372500259013
100.372523031277
100.372599575434
100.372690449886
100.372928690115
100.373143760801
100.373340016462
100.37347465085
100.373499104505
100.373458634491
100.373265193045
100.372999565062
100.37260566866
100.372173985567
100.371689931969
100.370994862393
100.370695842517
100.370382692637
100.370167290065
100.370116731894
100.369874542988
100.369707320587
100.37000455994
100.369757709014
100.369522818603
100.369289092952
100.368966036094
100.368674879794
100.368222037672
100.368464336711
100.368856216225
100.369134518297
100.369263550697
100.369479977982
100.36946072026
100.369273917698
100.368491069515
100.368737446373
100.369014535884
100.369109114832
100.369337573673
100.368884681296
100.368348619592
100.367673786916
100.367044676905
100.365741112578
100.365782188092
100.366390648245
100.367063893699
100.367608057957
100.368139471189
100.368637263891
100.369715318328
100.367050014956
100.366606150078
100.366369184994
100.366223792516
100.36592737827
100.365625712048
100.364566795077
100.363776696619
100.361212337535
100.364867924747
100.365977509348
100.365105590872
100.363813745188
100.363030252586
100.361573184502
100.360224888539
100.360675090324
100.361524418722
100.363271974027
100.363199275495
100.36383731431
100.364888375455
100.365947096261
100.366619435746
100.367349576448
100.367945544302
100.368561972249
100.369051450517
100.369508676551
100.369089247672
100.370031609489
100.367707965694
100.37284167815
100.372924747699
100.372705394624
100.372344225328
100.371809335677
100.371005975504
100.369762691222
100.368187639893
100.367187756023
100.366175553628
100.368242314642
100.36854536253
100.366567135827
100.363879117957
100.362163694828
100.360791002189
100.353465334252
100.355926929512
100.356189404616
100.35795374146
100.359976260348
100.361242322894
100.365990251547
100.368106666005
100.370245790219
100.370245423464
100.370548545051
100.36910344573
100.369498690679
100.36987280778
100.370357810112
100.370703407609
100.371282759284
100.372167784863
100.372386146158
100.372322538822
100.372251362772
100.37236164994
100.372418851773
100.372502804734
100.372570922696
100.372584088716
100.37268840835
100.372775008625
100.373000230634
100.373235009919
100.373440694841
100.373583727939
100.373610411495
100.373578333255
100.373361489222
100.373098996849
100.372671384557
100.372228242116
100.371775506161
100.371103325849
100.370827688593
100.370513474266
100.370336625765
100.370301622236
100.370186733009
100.370444084092
100.370254722913
100.370317487115
100.370460829027
100.37061434832
100.370415690546
100.370249633933
100.369887484669
100.3700152951
100.370234511802
100.370071666097
100.369817312395
100.369454321024
100.369911581957
100.369528494952
100.369177907107
100.368838670707
100.368463815408
100.368052420951
100.367683293002
100.367013906625
100.367341663159
100.367838074974
100.368242711815
100.368493032382
100.368819893514
100.369158168308
100.369141919621
100.36887495324
100.368321308521
100.367847695671
100.367685899864
100.368237635323
100.368349837873
100.369933851662
100.370894257593
100.371231556868
100.371514823666
100.372461787011
100.372539127378
100.372384783949
100.372344596743
100.372464015423
100.372549971443
100.372615830565
100.372641438038
100.372769046325
100.372845488597
100.373045795205
100.373341611343
100.373562951651
100.373696687249
100.373718184618
100.373693098806
100.373468076356
100.373205252938
100.372787618083
100.372380077174
100.371897765858