/*--------------------------------*- C++ -*----------------------------------*\
| =========                 |                                                 |
| \\      /  F ield         | OpenFOAM: The Open Source CFD Toolbox           |
|  \\    /   O peration     | Version:  v1612+                                |
|   \\  /    A nd           | Web:      www.OpenFOAM.com                      |
|    \\/     M anipulation  |                                                 |
\*---------------------------------------------------------------------------*/
FoamFile
{
    version     2.0;
    format      ascii;
    class       volScalarField;
    location    "0.5";
    object      p;
}
// * * * * * * * * * * * * * * * * * * * * * * * * * * * * * * * * * * * * * //

dimensions      [0 2 -2 0 0 0 0];

internalField   nonuniform List<scalar> 
81489
(
99.9999573759226
100.004781541242
99.9979923529263
100.002260868736
100.007576013971
100.004250014471
100.003872377025
100.00392447745
100.004094591594
100.003710522792
100.004315668179
100.00740190148
100.011246225176
100.010080728087
100.008282835101
100.0092873502
100.006434857286
100.004051462126
100.004069548176
100.006448447358
100.009261217273
100.008238819729
100.010046404776
100.011200589178
100.007379726236
100.004284819532
100.003679307514
100.004069214366
100.003896847977
100.003840800301
100.004216067068
100.007555484568
100.011366557882
100.010213897656
100.008275424039
100.009287364979
100.006475689163
100.004115736947
100.004098916689
100.006462503295
100.009310949837
100.008322526552
100.010253292123
100.011405789038
100.004564095372
100.00385229173
99.999575231183
100.000086439414
100.001443313516
100.001862403139
100.001890131909
100.001465990981
100.000067357535
99.9995400916469
100.003822197741
100.004535590559
100.00225822549
100.001191532814
100.001891930502
100.002129871169
100.002083358081
100.001757193739
100.001418265513
100.002393556523
100.00452602265
100.003799518279
99.9995154286829
100.000025915436
100.001422330197
100.001847186168
100.001817370939
100.00139227013
100.000048821499
99.9995534598512
100.003831127955
100.004552403996
100.002396533603
100.001432152082
100.001773959918
100.002101314844
100.002148398301
100.001907761997
100.001207237762
99.9979690641396
100.000101248742
100.000009948714
99.9887058051561
99.9911006964299
99.9912345601973
100.001543674663
99.9961647614256
99.9942499587652
99.9966705681706
99.9988269396089
99.9988571002056
99.9966733753233
99.9942007670636
99.9961240585425
100.001513642543
100.001523004164
99.9979962617071
99.9979577558941
100.000095342921
99.9989401046806
99.9989164990712
100.000144645762
99.9980407707551
99.9978822370626
100.001474636157
100.001522887932
99.9961106959852
99.9941534347861
99.9966245305244
99.9988112854116
99.9987832803874
99.9966124702499
99.9941976437612
99.9961493660057
100.001552276868
100.001509337731
99.9978807828995
99.9980537226894
100.000151806258
99.9989342767156
99.9989587292428
99.9960207299775
99.9959722950426
99.9887492279107
99.9589491050223
99.9588692266438
99.953271093346
99.9542440125942
99.9594094106503
99.9897912644821
99.9968209558618
99.9961555833705
99.996151435377
99.9967469545117
99.9993786050647
99.9912332978585
99.9910627550386
100.004793035062
100.000002851068
99.9959935855788
99.9959475794578
99.9997258132521
100.004373567232
99.9910530856798
99.991236212976
99.9897336740874
99.9897715457614
99.9912409259371
99.9910914311707
99.9534053704639
99.953183496375
99.9546909541863
99.9546788252953
99.9531646290085
99.9536917848016
99.954517389203
99.9545382726318
99.9594585035761
99.9897553394222
99.983854321834
99.9671451318411
99.9607141694545
99.9605536388769
99.9580980395132
99.9591524125495
99.953709034259
99.9543435054677
99.9533249504053
99.958894542528
99.9886777010532
99.9887210565416
99.9589750511376
99.9534567808295
99.9544205536258
99.9594990262916
99.959450404921
99.9543235257755
99.9537092475359
99.9591652382538
99.959034816536
99.9583099512205
99.9583189156313
99.9590611854489
99.9591783428888
99.958104362468
99.9594232697836
99.9594181008209
99.9600439154336
99.9600054806134
99.9590510142455
99.9531831464036
99.9547028140542
99.9547171161567
99.9532052578221
99.9537263942538
99.9545718504081
99.9545502953686
99.9581148732365
99.9594259815379
99.9600583335023
99.9600065339467
99.9594969596515
99.9594996524618
99.9600214874729
99.9600599134029
99.9579749056464
99.9577888537122
99.9577882636115
99.9579701443392
99.9579149721589
99.9577833970936
99.9594882173292
99.9583201925572
99.9583109977015
99.9590258056609
99.9591378147204
99.9581088856403
99.9594194038746
99.9577918737435
99.9577954873456
99.9579867107607
99.9579318488193
99.9578048156935
99.9578008642326
99.9579305326186
99.9555650130474
99.9555918184055
99.9555139581825
99.9555114075486
99.9555812773127
99.9555468417921
99.9555093066251
99.9555113714401
99.9577858115224
99.9594844998709
99.9599927552647
99.9600345307639
99.9579680921965
99.9555815953274
99.9555173761934
99.9555231748332
99.9556015820207
99.9555765162695
99.9555402993013
99.9555334568776
99.9536058780483
99.9536289417976
99.953635807891
99.953567362962
99.9535623689719
99.9536164898043
99.9536068303576
99.9535677551738
99.9535676726482
99.9535972378635
99.9555479309678
99.9579164043527
99.9584844614265
99.9558504038813
99.9538749682067
99.9536144651687
99.9535665457749
99.9535789292252
99.9536488106482
99.953647638031
99.9536120440243
99.9518504627815
99.9518471042749
99.9518560686017
99.9518486415858
99.9517959919564
99.9517898007401
99.9518155940519
99.9518139054787
99.9517825116345
99.9517848962838
99.9517988676086
99.9518122784437
99.9517895274457
99.9518116387791
99.9518657438645
99.9518758167698
99.9499560835434
99.9499394654959
99.9499352325244
99.9499284637664
99.9499214710872
99.9498704653155
99.949866118016
99.9498625299657
99.9498593747855
99.9498334194211
99.9498410388149
99.9498474256252
99.9498559656561
99.9498557625855
99.9498965651913
99.9499392670308
99.947652385378
99.947649020416
99.9476014290879
99.9475932198844
99.9475886638308
99.9475798175198
99.9474986401378
99.9474988842505
99.9475217561268
99.9474951986949
99.9474331510496
99.9474493994111
99.9474735698751
99.9474680865294
99.9474622604358
99.9475497256347
99.9443128465735
99.9444641176254
99.9444479343959
99.9443689855932
99.9443228996856
99.9443174538421
99.944313689493
99.9442148130767
99.9442102991217
99.94424950612
99.9441909056015
99.944080710629
99.9441004093928
99.9441569203704
99.9441096857119
99.9441232688976
99.9390270131583
99.9393239026077
99.9392273414784
99.9391289697544
99.9392575684918
99.9392416884822
99.9390765727824
99.9390344051446
99.9392104481866
99.9391587277984
99.9389079513041
99.9387995780097
99.938979667561
99.9389838330218
99.9387738919414
99.9386725212459
99.9239699564147
99.9255772233665
99.9256770582495
99.9242999658559
99.9242597402679
99.9261593585469
99.9261829673088
99.9243353719715
99.9242525185853
99.9256209949489
99.9253753071503
99.9238040653626
99.9236952602914
99.9252023852719
99.9251881097899
99.9238380146689
99.9374462426804
99.9381518754084
99.9350389548033
99.9350209630218
99.9384927491927
99.9383643440096
99.9350568040408
99.9351060797404
99.9384240307203
99.9386075556831
99.9351033161968
99.9347346401318
99.9377562446147
99.9372155424143
99.9338775416192
99.9339928696537
99.9926055592243
100.046232035533
100.003142403478
100.0031843698
100.046252016123
99.992967524343
99.9923171204758
100.046354357774
100.003478783432
100.004428565026
100.048249745384
100.080678495974
100.080329823166
100.047960764582
99.9943718886287
99.9943386216298
100.118511597924
100.218326464354
100.175873157315
100.175945495889
100.148589308468
100.142115762443
100.140515631475
100.003582679687
100.046429015003
100.077212239692
99.9925358093577
99.9920127076829
100.045629531163
100.00247270586
100.002727271379
100.046019492063
99.9925560068827
100.078257144981
100.078362331664
100.17276314332
100.146171431459
100.140468147034
100.139193663193
100.144477023935
100.171600549499
100.172053244457
100.145630867569
100.140861181467
100.142131989744
100.148581046945
100.240659153668
100.280507584381
100.259046612838
100.258972181006
100.280191669909
100.269505977327
100.240536832208
100.335760794897
100.371009520448
100.343268978994
100.334135919482
100.334020386241
100.341358767588
100.277324617584
100.23817685274
100.2693645758
100.334670632854
100.368963716123
100.390106570303
100.397013438397
100.399437121895
100.4037331642
100.40554803335
100.405680436113
100.405516732649
100.405418078521
100.405359394647
100.405322425357
100.405376820174
100.405399951032
100.405357901181
100.405364315479
100.405520328876
100.405946171047
100.406887904428
100.408954751142
100.413253642392
100.421198569373
100.436814330154
100.460782911401
100.499961579817
100.495829240194
100.431893581326
100.37501877862
100.317460324508
100.285102494836
100.306076570188
100.305459476769
100.303156140414
100.303450751008
100.304536479469
100.305638170685
100.306895662613
100.308517228927
100.310454138805
100.31249374951
100.314359223276
100.315780852199
100.316522952063
100.315383096949
100.313955852117
100.312314387982
100.310584316288
100.308836136368
100.307082242211
100.305377432623
100.303821990291
100.302509681532
100.301457415603
100.300631282285
100.300016162199
100.299521072634
100.299055604727
100.298538257753
100.297934775031
100.29731493498
100.296921378265
100.297198982015
100.298554014351
100.300893624311
100.303096838592
100.303551973584
100.303290594512
100.303447688561
100.303391209083
100.303409283617
100.303381875557
100.303394075137
100.303333736682
100.303287038273
100.303246313538
100.303157167188
100.303020200708
100.30286117104
100.30292117679
100.302946940672
100.303180055726
100.30315229356
100.303083587271
100.303209909476
100.303290199775
100.303314074857
100.303357717362
100.303410049396
100.303396198595
100.30342227836
100.303401842567
100.303453551431
100.303294559352
100.303541485986
100.30337039753
100.303472687401
100.303427525136
100.303443298326
100.303418635839
100.303428935721
100.303382950701
100.303344328788
100.303329382148
100.303248035699
100.30327577317
100.303167982504
100.303232458956
100.303368150683
100.303363485475
100.303428241769
100.303360528736
100.303368621507
100.30340819851
100.303448291193
100.303448366393
100.303467534009
100.303456474585
100.303503161313
100.303373295591
100.30354371189
100.303517794281
100.303548517681
100.303507525588
100.303502254852
100.303479239494
100.303472339306
100.303447678106
100.303410204475
100.303449165684
100.303459838935
100.30347293374
100.303370943114
100.303255586466
100.303036019067
100.302770315376
100.303051782345
100.303378200226
100.303294629983
100.30334237269
100.303414691143
100.303509450975
100.30349279929
100.303550221284
100.303505288759
100.303504134806
100.303523508321
100.303535101646
100.303581684441
100.303565623353
100.303633401933
100.303502455909
100.303674785912
100.303591166612
100.303654080116
100.303621230544
100.30361538223
100.303610462388
100.303559609358
100.30358087008
100.303619064175
100.303605636378
100.303580726625
100.303529373522
100.303557658872
100.303484699356
100.303542843899
100.303424077815
100.303680103616
100.303905318285
100.303830798547
100.303644051402
100.303640679239
100.303573427305
100.303597591876
100.303638094865
100.303660401547
100.303631363278
100.303606012945
100.303639166059
100.303667117643
100.303663220789
100.303721194143
100.303574808653
100.303847787207
100.303713600054
100.303797492372
100.303717161066
100.303715725915
100.303684840637
100.303718337771
100.303686265718
100.30366004139
100.30371317923
100.303707959086
100.303839683048
100.304000213969
100.303933040018
100.304024211411
100.303939277907
100.303762225929
100.30375634971
100.304011565201
100.304216874358
100.30439562649
100.30451406813
100.304425110501
100.304562197781
100.304632110355
100.30456657732
100.304614423582
100.304605234159
100.304609312517
100.304327322201
100.304119183078
100.303813736381
100.303841358446
100.303762759409
100.30376688387
100.303761479222
100.303825383331
100.303763999761
100.303759712061
100.303867655916
100.303708640369
100.303972209992
100.303885474733
100.303923362594
100.303812317353
100.30384647226
100.303958745883
100.30383937947
100.30390173286
100.303834356233
100.303871894844
100.30392613686
100.303924784224
100.304205822177
100.304367641333
100.304437244811
100.304448206258
100.304483407751
100.304356919744
100.304306082715
100.304123350565
100.304052233166
100.303978800693
100.304043335945
100.303977613395
100.303913645994
100.303942454153
100.303975363565
100.304006979319
100.303957969619
100.303860939928
100.304123782683
100.304059703689
100.30406007441
100.304074236957
100.304050786239
100.304011471159
100.304120283318
100.304213300315
100.304125116921
100.304238790597
100.304432121641
100.304519180455
100.304615217235
100.304693994148
100.304523699194
100.30475957108
100.304664219037
100.304869409993
100.304815416118
100.304581003245
100.304485039602
100.304351743999
100.304316938338
100.304182508362
100.304181983135
100.304241128229
100.304152748003
100.304213290331
100.304149737793
100.304129044712
100.304251168732
100.304237754794
100.303959739455
100.304362102323
100.304156201768
100.304096061037
100.304332600133
100.304174571171
100.304260823771
100.304195926875
100.30425810579
100.304317002353
100.304304721723
100.304361846325
100.304440868653
100.304613322905
100.304795860073
100.304759271818
100.304807432864
100.304652560984
100.304758824415
100.304955166332
100.305186192338
100.305200684297
100.305384828628
100.305450347673
100.305391614445
100.305160754164
100.304968983547
100.304628360525
100.304449487997
100.304377269969
100.304430540923
100.304305333547
100.304308876405
100.304433889193
100.304241685889
100.304397963797
100.304334674728
100.304444709941
100.304588181443
100.304245979554
100.303686007591
100.304179356017
100.303845047716
100.303429096845
100.302848800333
100.302147265821
100.303382623927
100.303234091298
100.301472825681
100.299211206225
100.297640132192
100.297058359808
100.297207213592
100.297684894343
100.298252860913
100.298787095109
100.299280886748
100.299791263565
100.300404167557
100.301194146821
100.302205922765
100.303487670538
100.305023856747
100.306709169051
100.30840937261
100.3100708529
100.311700646562
100.313245369759
100.314579446385
100.315645899459
100.316380819464
100.317302802822
100.317773836198
100.316972247904
100.315794418215
100.314315980736
100.312621184836
100.310837535387
100.309047521094
100.307275340221
100.305571087096
100.304014932781
100.302686315959
100.301605052499
100.300754163217
100.300131060868
100.299644225718
100.299198993931
100.29870021725
100.298094441011
100.297414622818
100.296893263339
100.2970129786
100.298231295131
100.300560614204
100.303020933509
100.303572677174
100.303252659892
100.303444705208
100.303383094054
100.303407243301
100.303348785524
100.303380254283
100.303294178544
100.303263847117
100.30320058878
100.303137846565
100.303070856158
100.302972374392
100.302869771897
100.302621019182
100.302283760701
100.301771485714
100.301632563823
100.301759112765
100.301875526099
100.302046510829
100.302584620251
100.302551844233
100.30239542205
100.30233020931
100.302233157596
100.302597639726
100.302704130452
100.302788796817
100.302858432198
100.303122230748
100.303203196659
100.302891008615
100.302560324156
100.302299599845
100.301779903287
100.300989634471
100.301543015218
100.302264498884
100.302108218839
100.302524368709
100.302826985011
100.302454348194
100.302936296209
100.303392729169
100.303813774667
100.303655655613
100.303302982077
100.303459163252
100.303764956989
100.304138630471
100.303956836339
100.30384870699
100.303568935429
100.302833533385
100.303208391104
100.303658104513
100.303804652907
100.304209335819
100.304368460476
100.303877380048
100.303966497723
100.304372413885
100.304379339821
100.304564050202
100.304593019891
100.304345451126
100.304317653365
100.304097887065
100.303690019345
100.303489923277
100.303700339297
100.303808640113
100.303790670091
100.303727982332
100.303689153644
100.303616722461
100.303595500855
100.303549585714
100.303527653005
100.303463120277
100.303431256433
100.30341439328
100.303403779566
100.303396312311
100.30344157525
100.303383627002
100.30339421286
100.303369108702
100.30337792055
100.303313643087
100.303265518321
100.303209833181
100.303123160205
100.303005595824
100.302972800741
100.303091291745
100.30321141614
100.303261688302
100.303243266838
100.30323321214
100.303251173744
100.303202217396
100.303161828175
100.303119952339
100.303051721131
100.302892643275
100.302622832358
100.302242354539
100.302091274671
100.301335834426
100.300548297549
100.298903378495
100.298418003948
100.299673962471
100.300162088144
100.300970546555
100.300808929539
100.299893716879
100.300110582894
100.300351224001
100.300656341103
100.299559280264
100.298380730841
100.29671450846
100.298351365807
100.298741380107
100.299680115691
100.300283749424
100.3009337694
100.301768287621
100.301730270296
100.30136729445
100.30057115456
100.2997933041
100.2997146173
100.300321276674
100.300274734358
100.301614876057
100.303356556199
100.303524713443
100.303348918581
100.303336869495
100.303274739916
100.303259664525
100.303226216337
100.303243289519
100.303241310992
100.303230124861
100.303235219955
100.303440177059
100.303384696283
100.303402157255
100.303368463321
100.303328085577
100.303341688887
100.3033443362
100.303251950183
100.3032020981
100.303163692441
100.303116926281
100.303057855881
100.302891338908
100.302629840532
100.30226142822
100.301426664251
100.300572237351
100.298843164959
100.298798105569
100.296346658011
100.293554887427
100.293792934828
100.293698113774
100.294362231131
100.294987914408
100.295817251885
100.29350170025
100.291197436308
100.292920701577
100.294562241836
100.295577039491
100.297001975817
100.297132372034
100.296338002225
100.294766403034
100.294144391668
100.295890345121
100.297419322966
100.297752735376
100.297504435595
100.299741922865
100.301212375674
100.303149220179
100.303482727737
100.30350636101
100.303047222749
100.303494570223
100.303489589433
100.302983952107
100.303469567189
100.303470814143
100.30323304017
100.303237536229
100.303442328063
100.303386936882
100.303403413706
100.303370010037
100.30332885567
100.303347591166
100.303297825022
100.303268503528
100.303201233934
100.303138997389
100.303065840579
100.302977514984
100.302782377965
100.302503085861
100.302102924547
100.301304266589
100.300516402153
100.298806287007
100.296471880678
100.293680661352
100.293563381865
100.289777082773
100.285816712915
100.263776836565
100.263349728158
100.265855720183
100.282736820277
100.286042579509
100.285812488904
100.289745789416
100.289974434364
100.290038135071
100.284070845782
100.287142061982
100.289132242382
100.285433499773
100.28038307006
100.271986777837
100.279392727629
100.28506426921
100.284669988765
100.28806470934
100.290065797455
100.287772860233
100.291013526596
100.292561115929
100.294054477814
100.295391206575
100.29537915791
100.293712693655
100.29231057226
100.291849886773
100.293431650979
100.294825795652
100.295377406381
100.296907350126
100.293650352668
100.295050802017
100.294941245015
100.294853858265
100.294848757166
100.295232950884
100.29466335576
100.292124202238
100.2938483162
100.291630356377
100.296726377951
100.293613587603
100.293687939008
100.294151479219
100.294099681954
100.293559973881
100.294363322176
100.293762369437
100.2932033509
100.292084264395
100.291127577365
100.293072384663
100.291649373508
100.291215368574
100.290932940678
100.293240785167
100.290159503925
100.290724568898
100.291509636557
100.302416757747
100.300925082534
100.299759321722
100.300069900754
100.302680417376
100.303938047665
100.302022427105
100.301206228165
100.301603150816
100.297092349656
100.298881540753
100.297193815896
100.294619691222
100.294559141502
100.296678743873
100.297973221048
100.296595571664
100.29672884681
100.295396246909
100.294497154744
100.295304621365
100.295406746009
100.299871438913
100.302292070375
100.302908195885
100.303822795089
100.303770331516
100.303743450138
100.303598252698
100.303577318874
100.303519180136
100.30360946244
100.30352017666
100.303453212226
100.303343394621
100.30334362008
100.303577343288
100.303258434533
100.303449020018
100.30338834238
100.303409640221
100.30335313172
100.303383908136
100.303385147599
100.303318657222
100.303269310641
100.303212092252
100.303124619252
100.303007146954
100.302868307632
100.302630850241
100.302291461275
100.301786442537
100.301090225582
100.300224122818
100.298574940529
100.2964501045
100.29370726886
100.290147844542
100.284156585074
100.282791632226
100.266643531446
100.247014980081
100.170017767549
100.183585206246
100.199829657965
100.204239249794
100.201633193178
100.197878131948
100.209327082315
100.205902686712
100.200471074889
100.21130581452
100.207151464629
100.200180819353
100.209760388051
100.206156791059
100.198943596067
100.20811050151
100.204643948753
100.19746518619
100.206391208153
100.203065904484
100.196062777737
100.204163576557
100.20160998251
100.20246877519
100.201828138288
100.200615432011
100.200742511423
100.20096935811
100.200382038377
100.200313924478
100.200624698339
100.200110304041
100.199753233349
100.200371367795
100.200288432071
100.199979959507
100.200042463747
100.200280001029
100.200518260491
100.201037461468
100.200630151239
100.200329615515
100.200088977523
100.20055417816
100.200402554894
100.200094986037
100.199485884024
100.199422702028
100.199985653423
100.200344844578
100.200521819395
100.200069465467
100.200319710329
100.200627103187
100.201035817505
100.200507362072
100.200268824236
100.200043586082
100.199996074727
100.200292570094
100.200376865588
100.199746910005
100.200102987503
100.200616152775
100.20031919249
100.200398282208
100.200912324141
100.200702927446
100.200594232042
100.201811888064
100.202442236305
100.201593410111
100.204128571186
100.203863795842
100.20502054692
100.202871604796
100.202088379896
100.204138886458
100.203640654766
100.201858693438
100.201405942976
100.201760951645
100.198954901216
100.199619841324
100.200325488234
100.200472133907
100.200548773658
100.200287427168
100.199652103639
100.200142084285
100.199264852276
100.199398253584
100.200103063716
100.19959836882
100.201520076105
100.200997726418
100.200687043278
100.200349466873
100.200542207951
100.200454341581
100.200415374881
100.200431562055
100.200868517051
100.200211995872
100.200110320055
100.200080390329
100.200250897313
100.200789719798
100.200338692378
100.200319178853
100.200446042938
100.200576964786
100.200172317212
100.200362029607
100.200747567234
100.201475295658
100.200056591032
100.200095936082
100.199949668606
100.199965516486
100.200128821502
100.200069450384
100.201480398257
100.200757186246
100.20036525284
100.200170133331
100.200576683484
100.200709165873
100.20093945821
100.200938684792
100.200704777351
100.200564106304
100.200669922775
100.200668803207
100.200562719491
100.200730020756
100.200337882286
100.200322369502
100.200447102932
100.200915640878
100.200077192623
100.200277071668
100.201929409931
100.201246024226
100.201547917444
100.201208231713
100.202305018244
100.201599782641
100.200853131914
100.201218455379
100.201530404497
100.201535415053
100.201204306742
100.200844713427
100.201596803793
100.202318617466
100.201191343566
100.201532882157
100.201254679439
100.201938610718
100.20087386535
100.202489559886
100.201901220157
100.201927080691
100.200841845828
100.200728864278
100.199990759219
100.201156792661
100.199614632209
100.200897770794
100.201510409303
100.200427190973
100.201764835192
100.201293781415
100.203488496648
100.204636107801
100.201236986502
100.19603614319
100.203003084023
100.206344826548
100.197426471589
100.204565812433
100.208041464691
100.198868562167
100.206048145551
100.209673890507
100.200032301141
100.206985630913
100.211254730058
100.200346937488
100.205763903747
100.209028764823
100.197641591203
100.201635437414
100.203989006449
100.200928361677
100.197585651598
100.197767672805
100.20393844489
100.200891596339
100.199332360577
100.19404928944
100.198846327593
100.198761659258
100.193984203443
100.188603236386
100.188524435542
100.171847656578
100.241551726664
100.240857226402
100.172350897159
100.170474586062
100.183709245885
100.199597146104
100.203879949684
100.192803777852
100.187267989278
100.192588238497
100.191217936833
100.196436389223
100.206131565691
100.202013247466
100.20117612871
100.206907237001
100.203556164497
100.202163871229
100.20573277331
100.202585784432
100.201515797304
100.204077285842
100.201300075923
100.2006806094
100.202406455775
100.199910574506
100.204132366289
100.203106645511
100.201132805973
100.201754957552
100.203370472676
100.201813515267
100.201418581964
100.199733605851
100.202324237315
100.202886710204
100.199858935222
100.204140993272
100.205104251
100.201542241003
100.205148191507
100.20692432767
100.202957721025
100.205939565073
100.207056461738
100.202122511509
100.202864492799
100.190976502481
100.178736554402
100.178976976991
100.186060131384
100.183133920742
100.182332371393
100.191304223064
100.180742830814
100.184084584461
100.17671992861
100.178581002533
100.189315412676
100.231827597567
100.255038490767
100.231671016792
100.161579753654
100.162720250446
100.186025074992
100.152514306089
100.137526843609
100.205367654795
100.246264396839
100.270216421096
100.279740265211
100.285719179435
100.28801803449
100.287660877073
100.282872241604
100.274635810081
100.261138430703
100.267154117904
100.276148247238
100.283988695822
100.288081249118
100.291647931464
100.294843723219
100.296040049914
100.300903734907
100.301879712885
100.301611910704
100.301660985193
100.301667053172
100.301625789133
100.303456883117
100.303563406264
100.303252233069
100.303450431507
100.303391707152
100.303403242121
100.303376592899
100.303390665743
100.303404570654
100.303342563293
100.303294423143
100.303250987397
100.303158479306
100.303021654226
100.302860244731
100.302611144708
100.302240881038
100.301661927005
100.300947475118
100.300077185363
100.298457513499
100.296822022734
100.29442645684
100.291547479247
100.287224149979
100.282410001241
100.275734608386
100.255201412294
100.231454354995
100.18927976911
100.178803137709
100.176856367098
100.184246518396
100.193076288974
100.186984931767
100.191678500238
100.191348788105
100.196657284222
100.206116537085
100.201951551302
100.201173386082
100.20693232824
100.203603521454
100.202199031429
100.205759027101
100.202597816835
100.201547647884
100.204114985285
100.201307435326
100.200705530521
100.202414877238
100.199943554142
100.201900394447
100.204650709525
100.20363947678
100.201871874695
100.201402745716
100.201793209386
100.202092503865
100.204136439984
100.203868262344
100.205059277481
100.202892746457
100.202614602763
100.20341449827
100.20119528626
100.200622584066
100.202239772565
100.204159424416
100.203119420125
100.201141732211
100.201776125042
100.200428326818
100.201523396009
100.200901222859
100.199623696628
100.201177187469
100.199996496176
100.200729916163
100.200841678893
100.20194096889
100.201923761603
100.202513784984
100.200886161364
100.200087882492
100.200713944848
100.20014786525
100.200759392669
100.200288803492
100.200914032561
100.201499900381
100.200839122307
100.200287887031
100.200449707776
100.203172356041
100.205392074636
100.203037152154
100.201929649645
100.201888025801
100.202388315797
100.202062021214
100.202693060761
100.202678953972
100.202037587593
100.202356012073
100.201859959606
100.20300321829
100.20540865902
100.203183967316
100.203198947882
100.204149376197
100.203126229306
100.202073759346
100.201983360432
100.202321635918
100.201490900683
100.200448293184
100.201874943875
100.201367039915
100.200083923385
100.202482324924
100.202585975985
100.201685407228
100.202091009831
100.203081249777
100.203945500971
100.203203072693
100.202771039991
100.20364368627
100.206157029213
100.205453906832
100.202445049142
100.20218688015
100.207957579462
100.208129501527
100.201695187353
100.193495178808
100.186567420624
100.179229259554
100.182679894029
100.184119034285
100.189278925428
100.1921239263
100.186589631447
100.173425996598
100.174828617725
100.173280807552
100.170965212598
100.162527656664
100.162037331337
100.179801154272
100.175935225205
100.177105591723
100.196168533004
100.195681916179
100.205838088609
100.219687064439
100.21458235452
100.219692636917
100.241767492278
100.264007008757
100.245759173391
100.266858227406
100.277764379248
100.282426503928
100.275876640802
100.274477783234
100.282210708575
100.288181344103
100.291874600305
100.29435794089
100.294847334557
100.293021930808
100.290962312589
100.304585651997
100.303856774491
100.303161365015
100.299853479919
100.300979053835
100.303102028656
100.300667504109
100.302671971214
100.303093105051
100.304222420675
100.303423492723
100.302780352777
100.30295155822
100.300141810891
100.301188407473
100.300116195517
100.29915915084
100.299919505583
100.299302395705
100.299365083095
100.299306356636
100.299450915756
100.299766905137
100.300148502294
100.300307784507
100.30073672869
100.301037710098
100.301220715887
100.300454754561
100.299541226246
100.298934248405
100.299369140464
100.299501628652
100.299464863763
100.299436000836
100.299721730818
100.299748896016
100.299634782447
100.299626451213
100.299471016143
100.299332284295
100.298481837855
100.29915898954
100.299257663528
100.299548047569
100.299936823912
100.300099568499
100.30005939732
100.29979972607
100.299995301012
100.30044842181
100.300560484603
100.300190350117
100.30020505042
100.299811794125
100.299787931644
100.300143805976
100.30118006847
100.300545886327
100.300400554333
100.299894196057
100.299231874097
100.298648236916
100.299425671447
100.300287853744
100.300232518611
100.299549562705
100.300025903613
100.300469211143
100.300435965671
100.300313375273
100.299461916574
100.299462904789
100.300305165463
100.300524551629