/*--------------------------------*- C++ -*----------------------------------*\
| =========                 |                                                 |
| \\      /  F ield         | OpenFOAM: The Open Source CFD Toolbox           |
|  \\    /   O peration     | Version:  v1612+                                |
|   \\  /    A nd           | Web:      www.OpenFOAM.com                      |
|    \\/     M anipulation  |                                                 |
\*---------------------------------------------------------------------------*/
FoamFile
{
    version     2.0;
    format      ascii;
    class       volScalarField;
    location    "0.9";
    object      p;
}
// * * * * * * * * * * * * * * * * * * * * * * * * * * * * * * * * * * * * * //

dimensions      [0 2 -2 0 0 0 0];

internalField   nonuniform List<scalar> 
80212
(
100.336249937672
100.335636975014
100.335588942705
100.33834685152
100.341897777045
100.341872861762
100.34218888422
100.342109414912
100.342630099367
100.344140279514
100.343466566021
100.342503168321
100.342816962708
100.343936792803
100.34455876465
100.342782405829
100.342211614104
100.3421977118
100.341880183934
100.341896048824
100.34246504596
100.342693679051
100.343573309577
100.345328336293
100.343735601435
100.34166880684
100.340720886142
100.340543108257
100.340976475653
100.34134538265
100.343951412905
100.343741362126
100.34299644997
100.342612451917
100.341180670429
100.341477646819
100.342203509979
100.34142157057
100.342872320457
100.344840927987
100.344761900877
100.342787055301
100.341371517229
100.342185155325
100.34146479176
100.341162432046
100.342587555343
100.342973357021
100.343708683702
100.343941616341
100.341338967897
100.340973708617
100.340547820477
100.340726673998
100.341674575737
100.34374101724
100.345332270673
100.343576512241
100.342701611262
100.342473514313
100.33938141024
100.339698272257
100.339152955975
100.339395824238
100.339135884878
100.339040827898
100.338605753209
100.338342208814
100.338836433612
100.338785348938
100.339139145877
100.339054517249
100.338842988969
100.339368417268
100.33867719422
100.338227384583
100.338473991626
100.338459490334
100.338533064335
100.338263007314
100.338256761445
100.338526440514
100.3384513841
100.338471639971
100.338243785031
100.338716243537
100.339408243121
100.338878204261
100.339075462531
100.339147868848
100.338785507378
100.338833984141
100.338336274652
100.338602803559
100.339035464862
100.339126770798
100.339388743612
100.339145971535
100.339687815188
100.339371594436
100.338348528838
100.338438918541
100.339621228311
100.340040797097
100.339483532848
100.34012063749
100.339609319989
100.339368307468
100.339530530674
100.339913342183
100.340300746343
100.339541090557
100.340077792573
100.339646680946
100.33844993389
100.335680297979
100.33727094219
100.334825362431
100.334908192381
100.335051337499
100.337767948604
100.336090315406
100.334118031308
100.335180414614
100.336131269101
100.336250142412
100.335955938143
100.33688863403
100.337080040393
100.335970320422
100.336302742335
100.336194329129
100.336150648375
100.335861903481
100.334726132832
100.334108649235
100.335954216689
100.335297637143
100.334337940013
100.334328223746
100.335300885525
100.335929875751
100.334085065522
100.334729546654
100.335917169745
100.336210089612
100.336250449093
100.33633540242
100.33598007293
100.337077172163
100.33688494322
100.335951482145
100.336245822399
100.336124963538
100.335173109888
100.334108177706
100.336082514483
100.337754272455
100.33692721713
100.335585246911
100.335651209289
100.337217588985
100.33836177495
100.336520105863
100.334614704742
100.335371192978
100.336181183308
100.336274714622
100.335565084579
100.334800978724
100.336673366712
100.338454976141
100.33483587211
100.325658395446
100.326219114214
100.326366078002
100.325926305491
100.326771935709
100.3351239361
100.335507757582
100.335539824575
100.336383111504
100.338087574655
100.335492709654
100.33469983177
100.333512956084
100.336729701412
100.334461699124
100.333903023672
100.332570001318
100.333721936006
100.333205513432
100.337128080645
100.337172996157
100.333234357846
100.333808912907
100.332933760858
100.33404908475
100.332525752865
100.335126051846
100.335638349079
100.336158655901
100.334601848814
100.336852324169
100.333546179345
100.334695368491
100.33548871387
100.335110324131
100.335032812311
100.334892313547
100.334824980026
100.334843665853
100.334639567565
100.334612574172
100.32656074216
100.325035124357
100.324747005947
100.325024450919
100.325062088829
100.324835314019
100.32520199372
100.325302253148
100.326661256237
100.326546380657
100.326738706825
100.327774987648
100.332924135851
100.332319080637
100.328957661522
100.327283391506
100.326198117851
100.326293009792
100.328136167066
100.32767979999
100.327645972169
100.328060658496
100.327677642569
100.326659942673
100.32650669777
100.32663715794
100.326759549319
100.325917598656
100.32636393138
100.326228432134
100.325685768808
100.326593631655
100.325040022769
100.325594131923
100.325596237793
100.325574534123
100.325707129119
100.325728153613
100.325667538081
100.325790739317
100.32590844342
100.32609473794
100.32548188827
100.325800106364
100.326060883203
100.326110800104
100.326097180901
100.32639114407
100.326648866341
100.326598972557
100.326170397583
100.326074955601
100.325716163654
100.325435938582
100.325273887515
100.325182474583
100.324819823091
100.325060996885
100.32502083629
100.32474090323
100.325556072315
100.325393301486
100.325399050446
100.325403042246
100.325402507514
100.325516984056
100.325547101994
100.325544797005
100.325634771822
100.325651645089
100.325790897358
100.325677592464
100.325656499786
100.325615219241
100.325725447911
100.325728768581
100.326377020248
100.326016212405
100.326022646931
100.326011985491
100.326071711569
100.32588805789
100.32577103761
100.325655332207
100.325712933215
100.325691210446
100.32550310605
100.324451012678
100.324362009818
100.324384719772
100.324388934308
100.324373688864
100.324469488065
100.324515080567
100.324530167662
100.324658398382
100.324662834095
100.324751767299
100.324696150504
100.324727342498
100.324709699715
100.324763346851
100.324770304156
100.324728539984
100.324755497468
100.325663522281
100.325662223449
100.325770624035
100.32563451401
100.325611785987
100.325527416876
100.325525471587
100.324486044573
100.323273836018
100.323217911126
100.323143664021
100.323168445504
100.323176060221
100.323164400246
100.323249629366
100.323314053734
100.323361041667
100.32352526296
100.323571796849
100.323672107933
100.323677988929
100.323763312072
100.323781493997
100.323827917454
100.323814914641
100.323755543467
100.32373101316
100.323636782173
100.32469158154
100.32473912344
100.324629025595
100.324629287868
100.324505681262
100.323314700142
100.322166635373
100.322092488233
100.322009875724
100.32192505099
100.321945703678
100.321959957834
100.321960882675
100.322065491943
100.322161825295
100.322243189804
100.32246791027
100.322568516377
100.322709857166
100.32276160971
100.322897918012
100.322945574017
100.323007214446
100.322999166897
100.322916563131
100.322849429281
100.322711811799
100.322655428172
100.322499469956
100.322389103497
100.321248569228
100.320948630745
100.320828293193
100.320698788276
100.320576430368
100.320599260965
100.320622341626
100.320640767129
100.320793720118
100.320944646514
100.321077984392
100.321370476991
100.321560254927
100.321763385425
100.321878850994
100.322073677786
100.322159672552
100.322274841082
100.322293279083
100.322212243214
100.32209423455
100.321833497844
100.321675343595
100.321449104142
100.3202100895
100.319873543578
100.319428896957
100.319282117803
100.319076020821
100.318882958947
100.318928502308
100.318968389338
100.31899428924
100.319234363421
100.31947134848
100.319635675714
100.320072380809
100.320389969352
100.320687621502
100.320906213673
100.321235351082
100.321345971812
100.321592622319
100.32161557652
100.321414309065
100.321253245161
100.320837593744
100.320546183798
100.319064959705
100.318580879435
100.318014521544
100.317271696156
100.317186832722
100.316885635573
100.316576600772
100.316686881418
100.316756852154
100.316771392895
100.317136899748
100.317503389553
100.317598786344
100.318329765898
100.318858372506
100.319293312695
100.319716355648
100.32032469732
100.320354689013
100.320871944695
100.32085589606
100.320365279242
100.320246620317
100.319559439547
100.317791049737
100.316695710739
100.315962934715
100.31519877451
100.313893064152
100.313975607914
100.313568010921
100.312948610692
100.313335941795
100.313447212574
100.313286526062
100.314005144795
100.314493838118
100.314426086563
100.315734977612
100.316405935932
100.317049385954
100.31805949887
100.319180656515
100.318935573319
100.31995834286
100.319928229362
100.318813448099
100.319000578881
100.318039587433
100.315276719266
100.311404867485
100.311076856083
100.310054620735
100.307684146105
100.308048769073
100.30764390415
100.306287937159
100.307573251605
100.307753542725
100.306893684916
100.308449421487
100.30896891411
100.308570010186
100.310941920777
100.311772161062
100.311935592943
100.31570794356
100.318227726735
100.316906795559
100.319157756391
100.319104233252
100.316668404642
100.315248942772
100.310366889147
100.304440331226
100.302605208035
100.304631898932
100.303026467837
100.298223003095
100.299810423875
100.299378667554
100.296852052927
100.299525745449
100.29983984582
100.297843256823
100.300740916395
100.301265638068
100.30009846739
100.304408966075
100.305747691659
100.303387683511
100.30504205635
100.310817136644
100.315521580416
100.311553425154
100.310239730157
100.310114233346
100.311265211197
100.326121550911
100.32679501709
100.324020029796
100.317572982787
100.316629468595
100.313454830048
100.309216159122
100.309572062126
100.309507321047
100.30730129947
100.30891699788
100.309313513524
100.30874038253
100.311371132102
100.312133950459
100.311008642805
100.315207426843
100.318057963473
100.318630192785
100.324731151655
100.327280577522
100.326282944827
100.3316788126
100.331572525339
100.37166574462
100.367577140758
100.362647444579
100.360379532961
100.353428229246
100.348425643161
100.343167390508
100.344636216555
100.338615693153
100.33979990557
100.339615469553
100.349601424086
100.368689829926
100.370314624439
100.352067621556
100.33624353381
100.335013533144
100.383416948943
100.419866973542
100.401361209534
100.403905930356
100.413422740105
100.402804702051
100.386639667416
100.342616019974
100.3428618634
100.341876876405
100.347744698398
100.345470187381
100.350056615291
100.354634791628
100.361092329827
100.363138193721
100.36764712514
100.371670315612
100.413936140231
100.414030733631
100.429372501462
100.417751084424
100.40814687081
100.402876428942
100.398187216824
100.404548998623
100.384927450408
100.378895630969
100.393660493375
100.381641773186
100.390045482476
100.392961760007
100.396988312384
100.407067121989
100.440033242503
100.436843108954
100.440008051874
100.448542556313
100.432020658587
100.43182066406
100.431714689107
100.394987068465
100.381912340943
100.398892385158
100.434231057867
100.454092653353
100.468174278559
100.475162289519
100.479224225198
100.483390718726
100.485482198414
100.486485763479
100.487021367032
100.48714763504
100.486861525121
100.486335287017
100.485795952372
100.485378951183
100.485247240277
100.485356790964
100.485571070111
100.4858895619
100.486422932001
100.487379043537
100.489049738312
100.492162022141
100.497734953076
100.508165293804
100.519981357201
100.539703032022
100.529619789202
100.479744628369
100.431977189545
100.381963075831
100.354576253974
100.372090922733
100.372685460106
100.370576895701
100.370565994299
100.371566114321
100.37266937123
100.373839591093
100.375232636219
100.376804504764
100.378347392065
100.379632971032
100.38051628727
100.380927919646
100.380539398729
100.379995234965
100.379230587573
100.378238444801
100.377003359633
100.375469188653
100.373644727317
100.371665856036
100.369707404353
100.367961106309
100.366514228838
100.36538382041
100.364530924098
100.363941165147
100.363655615567
100.363722789414
100.364171655413
100.365047757156
100.366405618848
100.368149846436
100.369911306983
100.371205578487
100.371690055022
100.371674190765
100.371734403116
100.371716933531
100.37172769743
100.371744294008
100.371761650037
100.371790495677
100.371825649805
100.371951638953
100.372059299653
100.372100844743
100.372148217733
100.372127102795
100.371941263142
100.371853413346
100.371840679086
100.371795245148
100.371916089735
100.371875877148
100.371765943415
100.371749718099
100.371725327774
100.371701284621
100.371705018807
100.371675877918
100.371675697957
100.371688732335
100.37164992198
100.371541392499
100.371587694976
100.371647071551
100.371645511778
100.371643569891
100.371666078791
100.371692723499
100.371705491506
100.371699101971
100.371813118415
100.371644602379
100.371689061796
100.371725904705
100.37163277124
100.371589408409
100.371648445436
100.371641865695
100.371608388492
100.371591891978
100.371586352981
100.371579431937
100.371498036726
100.371495286385
100.371199516366
100.370594266826
100.371180761268
100.371473295161
100.371448110203
100.371518994972
100.371522939427
100.371539812337
100.371563529792
100.371598441027
100.371564421321
100.371635315755
100.371658881642
100.371635721615
100.37144745852
100.371400928934
100.371466606458
100.371428764598
100.371371684899
100.371484381331
100.371407511746
100.371490598932
100.371567526109
100.371588718767
100.371527934723
100.371532295567
100.371495761754
100.371485496363
100.371466701907
100.37146179827
100.371384961098
100.371404889981
100.371130592238
100.370389399422
100.371119030732
100.371375892268
100.371348333898
100.371412143733
100.371416024538
100.371416581376
100.37147056013
100.371479811074
100.371462960572
100.371539795361
100.37151486361
100.371374116483
100.371391481444
100.371486248503
100.371385091268
100.371428156557
100.371373125375
100.371478658847
100.371407952072
100.371435282489
100.371429977574
100.371367641891
100.371390936436
100.371365041764
100.371350270963
100.371303685762
100.371308771658
100.37107852487
100.370383486391
100.371115639313
100.371300473423
100.371286240265
100.371312573974
100.371335966007
100.37134385007
100.371374228003
100.371380602719
100.371337428471
100.371359612995
100.371312607713
100.371365379188
100.371411554438
100.371210186861
100.37111007161
100.371105245815
100.371213628604
100.371133591012
100.371344718673
100.371332095673
100.37127969881
100.371279203464
100.371342578028
100.37131423772
100.371306822388
100.371281960777
100.371269701911
100.371277117102
100.371130093037
100.370432841615
100.371244926056
100.371263284812
100.371264924002
100.371255158677
100.371274083497
100.371261498489
100.371315500656
100.371288564609
100.371236276629
100.371217266185
100.371215615984
100.371128744737
100.371137773024
100.37125659292
100.371250096924
100.371243442845
100.371214488792
100.371192245666
100.371082874545
100.370980284425
100.370567705499
100.37027402528
100.370592993746
100.370528299682
100.370933350851
100.370795464947
100.371052445133
100.371181908979
100.371205031056
100.371258825851
100.371282380358
100.371242423966
100.371221734161
100.371265712795
100.371275304488
100.371240580178
100.371249999241
100.37125029857
100.371130464575
100.370125127481
100.368497809663
100.370457805104
100.37125019358
100.371232246227
100.371248249769
100.371243225597
100.371268504827
100.371254185041
100.371213149179
100.371285912328
100.371283798007
100.371187652182
100.371194357842
100.371150475473
100.371018785402
100.370822419729
100.37110406771
100.371176606689
100.371233508772
100.371211005287
100.371154247677
100.370999509626
100.370711469134
100.370324136058
100.370408593463
100.370869343736
100.370771592465
100.371045758982
100.371182856423
100.371256175873
100.371232080642
100.371335372701
100.371269374144
100.371225868711
100.371209305731
100.371256923563
100.371224177008
100.371246129693
100.371215694105
100.371254631018
100.370615232063
100.368742173607
100.370919121276
100.371305715776
100.371249350006
100.371248495789
100.371274416155
100.371276153313
100.371264366277
100.371264658383
100.37126797613
100.371130225845
100.370391425016
100.368637619469
100.36683750991
100.369326516132
100.370749739632
100.371202930211
100.371291019779
100.371286542714
100.371278771796
100.371261190609
100.371309282679
100.37137753552
100.37128122774
100.371294219913
100.371223760791
100.371076019086
100.370830970503
100.371159554181
100.371282954465
100.37132994098
100.371397039769
100.37135631083
100.371160839194
100.370865501819
100.370373750928
100.37098367517
100.371171141419
100.371467859284
100.371348925341
100.371502649565
100.371520251421
100.371443441725
100.371499417877
100.371444714621
100.371344840883
100.371267545916
100.371320118677
100.371350404667
100.37130633258
100.37132377033
100.371276982559
100.370971446035
100.36969627634
100.367695755937
100.37045054101
100.371265561795
100.371351691994
100.371371225477
100.37135521152
100.371382766473
100.371426255569
100.371469044652
100.371369931272
100.371568284446
100.371609055119
100.371599619289
100.3716203173
100.371488865507
100.37118572106
100.370625542902
100.371282364348
100.371398842607
100.371689297709
100.371601121427
100.371725141258
100.371726038575
100.371574289542
100.371642567479
100.371466639241
100.371488162491
100.371421944731
100.371396421018
100.371384532839
100.371302372522
100.370954742433
100.369947824558
100.367991421668
100.366784188167
100.369219740696
100.370654668645
100.371221983863
100.37136513539
100.371417173384
100.371429213335
100.37154103008
100.37144066949
100.371697951901
100.371769110807
100.37178808487
100.371838815954
100.371745339757
100.371391141774
100.370808667605
100.371457350619
100.371840731212
100.371865865189
100.371911079701
100.371920321904
100.371894302252
100.371747713357
100.37175451341
100.371554066893
100.371576023281
100.371477547277
100.371477673472
100.371395911019
100.371344100507
100.371035952704
100.369761946917
100.368128003397
100.37071028342
100.371390639873
100.371432121287
100.371486670033
100.371493237718
100.371625628281
100.37151153353
100.371843131853
100.371805067859
100.37185007895
100.371682987977
100.371931633378
100.371970810266
100.371900291896
100.371570979254
100.370850179301
100.371427734187
100.37179896059
100.371916810652
100.371892076907
100.371853576449
100.371905853527
100.371764485065
100.371382643996
100.370749908021
100.371286998251
100.371450618803
100.371684833533
100.371768725641
100.371861726849
100.371884450938
100.37169533504
100.371770137305
100.371838738219
100.371615266339
100.371523172908
100.371593661201
100.37165153084
100.371526273914
100.371511983516
100.37143013889
100.371256025249
100.370553285021
100.368717422706
100.367725490119
100.370331526236
100.371235224576
100.371418599333
100.371501592665
100.371551797396
100.371554674324
100.371650099453
100.371622799822
100.371662601423
100.37158083457
100.371814670087
100.371741814909
100.371798075742
100.371663181315
100.371821878152
100.371807250663
100.37169436331
100.371402475672
100.370719625273
100.3712654465
100.371600970242
100.371735008059
100.371748798869
100.371726083257
100.371730184623
100.371576278055
100.371264298559
100.370677067521
100.371205186805
100.371371869318
100.371550306472
100.371640349817
100.371723047529
100.371747129366
100.371663403167
100.371720213623
100.37174888679
100.371624888973
100.371575543286
100.371615273178
100.371573142798
100.371564663623
100.371513196393
100.371398658147
100.371096461106
100.370240525019
100.368395153168
100.367813344601
100.370092725189
100.37109143641
100.371381710587
100.371539594393
100.37158016445
100.371581439715
100.371673186906
100.371660228836
100.371592797309
100.371604679417
100.371579343156
100.371604748091
100.371411380523
100.370741768115
100.369861808479
100.371368550159
100.371598450449
100.371614904193
100.371626058013
100.371614859132
100.371677658864
100.371598953758
100.371760435292
100.371706924928
100.37174859607
100.371647970561
100.371725248342
100.371705612692
100.371619090575
100.371328907778
100.371472789595
100.371619654118
100.371657188435
100.371713095108
100.371689490035
100.371571395252
100.371320489883
100.370909076302
100.371179844761
100.371469578708
100.371597386667
100.371630720321
100.371643513386
100.371699146909
100.371606562854
100.371650038846
100.371690756142
100.371626130236
100.371649552469
100.371635354643
100.371644325102
100.371446384005
100.370566962883
100.370305575901
100.37144987961
100.371662172719
100.37167888498
100.371674831477
100.371658655797
100.371709743871
100.37161374018
100.37174671961
100.371706963466
100.371668133477
100.371655051052
100.371533864056
100.371296085582
100.37089424972
100.371184419992
100.371439738594
100.371573549256
100.371606437949
100.371665667982
100.371658361455
100.37165185145
100.371666740722
100.371705945565
100.371674036457
100.371691067659
100.371696702879
100.371739080662
100.371602178199
100.370949161419
100.371016086519
100.371684858672
100.37171214498
100.371716682612
100.371706068026
100.371697746733
100.371678402711
100.371693074881
100.371647757681
100.371705878981
100.371645389433
100.371623794618
100.371499431703
100.371305139788
100.370931096178
100.371238930941
100.371460979662
100.371584738857
100.371602534759
100.371654863768
100.371691579356
100.371639231039
100.371619972503
100.371500023593
100.371350493838
100.371045517653
100.371284322809
100.371495538401
100.371606963067
100.371615607749
100.371663961282
100.37165613322
100.371676401661
100.371706495653
100.371697270078
100.37171722826
100.371737298628
100.371745420027
100.371760826969
100.371829861265
100.37138904669
100.37159911088
100.371814032339
100.371795268342
100.371791054015
100.371761485297
100.371732632423
100.371706890009
100.371703079086
100.371665918152
100.371687552801
100.371636467843
100.371619124595
100.371548436273
100.371468989664
100.371219328275
100.371428956549
100.37155196771
100.371619638223
100.371637792032
100.371685303512
100.37170753684
100.371654643818
100.371648205768
100.371624830701
100.371608211857
100.371445960193
100.371591303323
100.371642240808
100.371674873897
100.371669906435
100.371714949223
100.371688226938
100.371702970217
100.371715654019
100.371728034895
100.371762094267
100.37177932907
100.371805931588
100.371850960392
100.371890857271
100.371813704926
100.371976428041
100.37129926455
100.369731877638
100.37034379795
100.36847552619
100.369311845942
100.367388029337
100.368449200505
100.366662401411
100.365571961827
100.366349615081
100.365442863147
100.366405953464
100.365537702832
100.364990971664
100.365914572047
100.36536620787
100.365057713216
100.366403196133
100.366263940361
100.366304772515
100.368391559634
100.368555630926
100.368759877198
100.369069365397
100.369440064975
100.370810642367
100.370518366296
100.370930365022
100.371287856573
100.37152436717
100.37179707653
100.371743782675
100.371803073004
100.371817225722
100.371847926689
100.371861115892
100.371901820168
100.371934604845
100.372063800273
100.372195511269
100.372351304799
100.372438317307
100.372449527979
100.372302611525
100.372241227306
100.372061418321
100.371814261998
100.371716220043
100.371785637086
100.371846674085
100.372078292732
100.371867671097
100.371750510083
100.371680692201
100.371523872694
100.371277725113
100.370874967646
100.370543186247
100.370721825995
100.370839523065
100.37072976548
100.370588064487
100.370820636379
100.370858248468
100.371002797407
100.371079317413
100.371049118529
100.371179263203
100.371397122767
100.371416596852
100.371551915947
100.371471657599
100.371603457263
100.371468498973
100.371523109447
100.371570598693
100.371610968933
100.371680631323
100.371722540332
100.371763757467
100.371786852606
100.371805356809
100.371823598015
100.371835585567
100.371909544048
100.372064739667
100.372208212644
100.372295790754
100.372313877159
100.372127379758
100.371960886292
100.3717508267
100.371754743546
100.371787974666
100.371745092735
100.371776598916
100.371966535633
100.372017848581
100.372163128815
100.372294200874
100.372451840827
100.372564674679
100.372582735187
100.372525207697
100.372342461736
100.372117382724
100.371972207861
100.371582815892
100.371156201229
100.370705222345
100.370848124592
100.370976191051
100.370918294886
100.370786148378
100.370711540039
100.369937823642
100.369473263409
100.369304771204
100.369243168165
100.369084818987
100.36933225304
100.369625534174
100.369803233898
100.369857762545
100.36952123405
100.369922358315
100.370243943257
100.370353387024
100.370181892318
100.371422802746
100.371584607681
100.37153887871
100.3716135577
100.371623391985
100.371709998896
100.371747806797
100.371759451341
100.371769728312
100.371751025409
100.371793478888
100.371808351776
100.37183605092
100.371863827449
100.37189494815
100.37190835951
100.371969809815
100.372031187522
100.372088212394
100.372241319254
100.372400550186
100.372589348407
100.372706070785
100.372724279765
100.372698485339
100.3725175845
100.372279794527
100.37189563474
100.371453664926
100.370981713612
100.370839842464
100.370103748238
100.369729744653
100.369612462829
100.369516467335
100.369419017314
100.369174794315
100.369235704335
100.3695798237
100.369843343281
100.369881942708
100.369992154244
100.369678659154
100.370085607523
100.370343473576
100.370114331883
100.370878648219
100.371339449542
100.371763740537
100.371851430414
100.371830266486
100.371789994699
100.371861213344
100.371908300739
100.371947773527
100.372008894054
100.372033662521
100.372094495887
100.372142638319
100.372333068598
100.37252021338
100.372708781692
100.372834143358
100.372862178355
100.372829671248
100.372649406167
100.372394326569
100.372019686066
100.371576858722
100.37107321038
100.370361854086
100.370044983649
100.369920909034
100.369537714668
100.36927328869
100.369163803192
100.369003342975
100.368801994823
100.369028209817
100.369311221609
100.369039972994
100.368912461074
100.368704163065
100.36844358319
100.368201307394
100.368017439209
100.367864616397
100.367801855501
100.368034034609
100.368298675086
100.368491919024
100.368733230921
100.368906399628
100.36853612928
100.368635189465
100.368943877297
100.36901402122
100.369920451459
100.370626155287
100.371407674026
100.371725877829
100.371754392022
100.371812192848
100.371821388167
100.371938013057
100.371825739164
100.371866295075
100.37189871619
100.371955053211
100.372001858857
100.372062589935
100.372082466036
100.372157781895
100.372237499813
100.372463867716
100.372664051474
100.37284851591
100.372991338943
100.373016628299
100.372991946393
100.37280237747
100.372538197502
100.372144699328
100.3717064257
100.371206767504
100.370492307803
100.370184654305
100.369862294203
100.369644336468
100.3695919326
100.369360316953
100.369193123937
100.369493119587
100.369253864816
100.369027087722
100.36880067547
100.368483825807
100.368199696074
100.367751854245
100.367990620259
100.368375851875
100.368646594275
100.368766763205
100.368973839449
100.36895119177
100.368756913847
100.367949131262
100.368175877067
100.368466085534
100.368549151267
100.368838646752
100.368393560099
100.367847930682
100.367135094549
100.366454456956
100.365022315255
100.36517097469
100.36580986947
100.366510548133
100.3670663571
100.367599215883
100.368092086663
100.369209284293
100.366463684235
100.366040230141
100.365816678963
100.365662970905
100.365361375013
100.364983897423
100.363834755733
100.362895089589
100.359913524357
100.363944233213
100.365227231006
100.364406081548
100.362983433978
100.36202673121
100.360641044918
100.359379742026
100.359543388544
100.360426850317
100.362387148198
100.362378071322
100.363150378017
100.364234086154
100.365341251658
100.366065603655
100.366820517501
100.367429694102
100.368049067568
100.368527055215
100.368957632609
100.368528062459
100.369516069761
100.367067095703
100.372341476598
100.372420007009
100.372232126344
100.371920765213
100.371402533438
100.370598744003
100.369344259592
100.367695388154
100.366646602244
100.365562596727
100.36794841407
100.368357598507
100.366113953299
100.36332752151
100.361643772869
100.360176277815
100.353487047245
100.355923168332
100.355610398788
100.356905295321
100.358748588123
100.359955831801
100.365353975548
100.367756662761
100.369971009272
100.369946394119
100.370234435392
100.368806322491
100.369193278406
100.369595931941
100.370107435163
100.370455218856
100.371031443941
100.371797586311
100.371959674849
100.371886947696
100.371844020322
100.371930418511
100.371976290868
100.372055579554
100.372125276965
100.372135877966
100.372239875915
100.372319203192
100.372539640954
100.372764652847
100.372962244169
100.37311315449
100.373140179311
100.373120807965
100.372902573838
100.372636863836
100.372203589999
100.371749964578
100.371277566167
100.370587065615
100.37030234085
100.369980378518
100.369799339229
100.369766674464
100.369658306931
100.369918323742
100.369735820162
100.369801408225
100.369953111353
100.370106542108
100.369913327493
100.36975222521
100.369394075807
100.369520351602
100.36973261906
100.369562907261
100.369315594287
100.368959834105
100.36941898411
100.369042180983
100.368697942007
100.368363577898
100.367991581695
100.367583660093
100.367218423294
100.366546832373
100.366872288413
100.367368564633
100.367770211702
100.368015687584
100.368336871527
100.36866962044
100.368651979344
100.368379419698
100.367814597425
100.367326603033
100.367165354674
100.367734912197
100.367829763925
100.369564133337
100.370539529318
100.370846704076
100.371094422289
100.37202973085
100.372092402284
100.371917094664
100.371910916694
100.372012224719
100.372095897922
100.372163803638
100.372187805346
100.372317780081
100.372387254742
100.372589364209
100.372882214152
100.373100526798
100.373238956437
100.373260683596
100.373244221909
100.373012991609
100.372742784011
100.372314842658
100.371891824407
100.371391683477
100.370753418719
100.370445619996