/*--------------------------------*- C++ -*----------------------------------*\
| =========                 |                                                 |
| \\      /  F ield         | OpenFOAM: The Open Source CFD Toolbox           |
|  \\    /   O peration     | Version:  v1612+                                |
|   \\  /    A nd           | Web:      www.OpenFOAM.com                      |
|    \\/     M anipulation  |                                                 |
\*---------------------------------------------------------------------------*/
FoamFile
{
    version     2.0;
    format      ascii;
    class       volScalarField;
    location    "0.3";
    object      p;
}
// * * * * * * * * * * * * * * * * * * * * * * * * * * * * * * * * * * * * * //

dimensions      [0 2 -2 0 0 0 0];

internalField   nonuniform List<scalar> 
81489
(
100.002671338039
100.007495469119
100.000706320244
100.004974852826
100.010290007116
100.006963993821
100.006586349496
100.006638445478
100.006808561876
100.006424502042
100.007029660111
100.010115909302
100.013960251182
100.012794775672
100.010996912958
100.012001460394
100.009148994542
100.006765630329
100.006783752955
100.009162682919
100.011975478915
100.010953110628
100.012760723313
100.013914926596
100.010094078064
100.006999182999
100.00639367937
100.006783589796
100.006611221372
100.006555163442
100.006930420092
100.010269819391
100.01408087461
100.01292819292
100.010989689164
100.012001598733
100.009189895545
100.006829911721
100.006813054835
100.009176611801
100.012025033445
100.011036579348
100.012967317901
100.014119796533
100.00727809088
100.006566316166
100.002289281595
100.00280051604
100.004157413512
100.00457653969
100.00460430689
100.004180201556
100.002781597572
100.002254358596
100.006536492688
100.007249919159
100.004972569181
100.003905888608
100.004606301287
100.004844252318
100.004797741238
100.004471572486
100.004132634291
100.005107917979
100.00724037304
100.006513837681
100.002229722654
100.002740184028
100.004136571025
100.004561392426
100.004531538907
100.004106402198
100.002762925025
100.002267536713
100.006545177157
100.007266417491
100.005110532087
100.004146140128
100.004487932455
100.004815277123
100.004862358536
100.004621726789
100.003921213268
100.000683024589
100.002815195565
100.002723854815
99.9914196076871
99.9938145785949
99.9939485219614
100.004257678293
99.9988787997428
99.9969640258951
99.9993846607778
100.001541072933
100.001571276421
99.9993875897881
99.9969150106088
99.9988383335024
100.004227952077
100.004237363213
100.000710620455
100.000672126207
100.002809730752
100.001654499757
100.001630897366
100.002859040838
100.000755154567
100.000596616625
100.004189022559
100.004237224904
99.9988249999525
99.9968677087983
99.9993387773734
100.001525495296
100.00149744655
99.9993265978807
99.99691174264
99.9988634347931
100.004266312667
100.004223317443
100.000594764196
100.00076769557
100.002865763212
100.001648224743
100.001672674192
99.9987346285275
99.9986861976395
99.9914630433708
99.9616627618143
99.961582865374
99.9559848314723
99.9569578603485
99.9621234380448
99.9925053291183
99.9995350313361
99.9988697074908
99.9988656151566
99.9994611789316
100.002092872635
99.9939476315416
99.9937771882416
100.007507434409
100.002717277249
99.9987080250925
99.9986620243342
100.002440254873
100.00708798662
99.9937675504745
99.9939505924859
99.9924479540235
99.9924856649567
99.9939549309842
99.9938053386653
99.9561191391511
99.9558970072621
99.9574042630001
99.9573921002043
99.9558779956693
99.9564054100056
99.9572313378906
99.9572525201892
99.9621727210358
99.9924695627406
99.9865685496689
99.9698593815852
99.9634284559228
99.9632679734134
99.9608123863198
99.9618673271858
99.9564236200373
99.9570579206858
99.9560395186502
99.9616092237031
99.9913922264744
99.9914355957411
99.9616897507724
99.9561714005848
99.9571350392491
99.9622133342264
99.9621645137145
99.9570374445027
99.9564229939867
99.9618786425047
99.9617478192638
99.9610226839952
99.9610315844294
99.9617740279984
99.9618915550775
99.9608180987919
99.9621367268927
99.962132578098
99.9627592639231
99.9627215858119
99.9617663513725
99.9558979718544
99.9574178366218
99.9574321748578
99.9559201736487
99.9564410903695
99.9572862313254
99.9572643782408
99.9608288380161
99.9621398182949
99.9627712651405
99.9627187910122
99.9622087627146
99.9622113313433
99.9627334199302
99.9627725441996
99.9606864467611
99.9605018299151
99.9605029237501
99.9606863324393
99.9606323790357
99.9605016155035
99.9622047571824
99.9610357967935
99.961026663288
99.9617413013564
99.9618529259728
99.9608234736962
99.9621342661519
99.9605072122963
99.9605091092814
99.9606986935799
99.960642882693
99.9605149374772
99.9605107622507
99.9606407844227
99.9582725651048
99.9583013358225
99.9582260582917
99.958226421766
99.9582991577245
99.9582663669754
99.9582305802925
99.958233062499
99.9605042689684
99.9622011569085
99.9627091454612
99.9627502257654
99.9606848906803
99.9583004468133
99.95823360252
99.9582364361281
99.9583121610718
99.9582851025919
99.9582473296167
99.9582402071508
99.9563072336659
99.9563320322155
99.9563418071216
99.9562780280557
99.9562778426188
99.9563370047297
99.9563310112297
99.9562944997864
99.9562948764356
99.9563229233824
99.9582689101168
99.9606344103331
99.9612013243305
99.9585692219814
99.9565973677808
99.9563368753995
99.9562841285374
99.9562916126673
99.9563566978052
99.9563517791969
99.9563137153671
99.9545427099609
99.9545388113214
99.9545511789955
99.9545483181615
99.9545042206481
99.954506019294
99.9545411296198
99.9545453129785
99.9545188369289
99.9545218204034
99.9545320661034
99.9545411631982
99.9545091656058
99.9545234179106
99.9545687899432
99.9545727740174
99.9526415161389
99.952615343059
99.9526109315003
99.9526086807612
99.9526095334768
99.9525753983684
99.9525837124414
99.9525963451731
99.9526022926328
99.9525860346034
99.9525944109536
99.9525940146408
99.9525959558196
99.9525789887845
99.9526075639212
99.9526330845028
99.9503334167475
99.9503148322965
99.9502499383873
99.9502409649744
99.950247183047
99.9502519081542
99.9501959590016
99.9502185073308
99.9502694337373
99.9502581254228
99.9502126869097
99.9502302752627
99.9502429976528
99.9502249162323
99.9501926056903
99.9502574123345
99.9470093686995
99.9471251832197
99.9470779283002
99.9469756105893
99.9469270067634
99.9469381878561
99.946959973767
99.946894688882
99.9469398896485
99.94701755359
99.9469886102768
99.9469019657266
99.9469241666395
99.9469656252491
99.9468933202388
99.946871441948
99.9418018854899
99.9420014331636
99.9418608053769
99.9416918502381
99.9418000198626
99.9417774537964
99.9416263113909
99.9416431943529
99.9418591131843
99.9419069782169
99.9417020365369
99.9416635507544
99.9418652982245
99.9418739115904
99.9416567415958
99.9415008733515
99.9268812661318
99.9283941370737
99.9283203711859
99.9268838329779
99.926719350484
99.928584061503
99.9285945304798
99.9267713690507
99.9267944727825
99.928210009713
99.9281589060762
99.9266476287513
99.9266597394911
99.9282090362729
99.9281993497484
99.9268392752752
99.9406158437171
99.9412005335034
99.9379417438797
99.9376579694736
99.940941069946
99.9406516019115
99.9372796465582
99.9373184596702
99.9406682595151
99.9409763025389
99.9376407900539
99.9375204801769
99.9407450627191
99.9403568252661
99.9370834090707
99.9372106158191
99.9961459700038
100.049834187127
100.006547592455
100.00637319166
100.04930257192
99.9958918403939
99.9949118098838
100.048813905429
100.00580943922
100.006509684905
100.050136237707
100.082357929153
100.081987668798
100.049789880051
99.9962667277146
99.9962623285225
100.120422934477
100.220128619228
100.177345323729
100.177410147396
100.150271114164
100.144044700284
100.142549987775
100.00580524696
100.048766736782
100.079715686096
99.9950241348926
99.9948018917521
100.048564505951
100.005574124692
100.006100729165
100.049595359414
99.9960812700657
100.082024412588
100.08213480853
100.176725989607
100.149929704905
100.143963374407
100.142584521701
100.147605456271
100.174448226722
100.174673208977
100.148019680406
100.143051970174
100.144148221726
100.150317757373
100.242339353747
100.281713393547
100.260198310333
100.260135270902
100.281533945193
100.271258835683
100.24213971991
100.337532928775
100.37263599378
100.345172546415
100.33591917231
100.33599191889
100.343715838378
100.279570135448
100.240195325274
100.271187628689
100.336969010098
100.371406021982
100.392580584435
100.39970074927
100.402479364346
100.406901683699
100.408897983191
100.409302454879
100.409382725687
100.4093636759
100.409180774173
100.409030753621
100.409050760918
100.409059898816
100.408960107667
100.408784615185
100.408641743681
100.408597952638
100.409036365425
100.410939504067
100.415606219898
100.424493014703
100.441440175626
100.465758969017
100.504318574285
100.499784233197
100.435942127873
100.378919235987
100.321119971235
100.288621277772
100.309681379415
100.309116459768
100.306827214025
100.307151462694
100.308279356457
100.309406763334
100.310671500732
100.312288123295
100.314211407532
100.316230446184
100.318070819153
100.3194675499
100.320191601814
100.31906981805
100.317665644267
100.316062564546
100.314374230962
100.312651963983
100.310883747821
100.309074374264
100.307288760044
100.305545376136
100.303801358996
100.302078967014
100.300568464396
100.299681836895
100.300028412313
100.301889599733
100.303803793722
100.303813698788
100.3034218028
100.303989389548
100.304425679416
100.304593638306
100.304655489588
100.304803200939
100.305030418668
100.305150259146
100.305162364767
100.305207852684
100.305217610677
100.305250079132
100.305281209069
100.305300557588
100.30540852218
100.305503703265
100.30548276163
100.30537899603
100.305289660837
100.305196679374
100.30544215063
100.305372356503
100.305423552558
100.305456091009
100.305400277169
100.3053070156
100.305287797029
100.305262252086
100.305227044381
100.305218014904
100.305177750654
100.305166817738
100.305051329807
100.304850464195
100.305098869456
100.305181297258
100.305196807396
100.305232042599
100.305240259221
100.305278022212
100.305298858353
100.305315727553
100.305397766121
100.305422046579
100.30540076443
100.305332395366
100.305358095123
100.30544267569
100.305433106631
100.305419778912
100.30539003038
100.305326959239
100.30531287117
100.305299567095
100.3052555404
100.305249852416
100.305214725046
100.30520440121
100.305113772903
100.304946128786
100.305175664319
100.305221796137
100.305240287479
100.30527687928
100.305278673921
100.305334808713
100.305338582695
100.305357901422
100.305355964103
100.305373821468
100.305477032255
100.305467446891
100.305450463646
100.305123134393
100.304823358855
100.304929311615
100.305291332713
100.305239885712
100.305467600635
100.305499572529
100.305499144771
100.305397965205
100.305413216385
100.305371852881
100.305308200257
100.305312367079
100.305271837766
100.305263066686
100.305194965935
100.305183607139
100.305019537372
100.304746453339
100.305108725358
100.305203029326
100.305244351142
100.305302650445
100.305313359906
100.305354298297
100.305353266441
100.305398986308
100.305426138937
100.305423004663
100.305430524741
100.30552080387
100.305535312396
100.305489257689
100.30532726967
100.305412732988
100.305623154915
100.305558502375
100.305568338283
100.305548792407
100.305461550483
100.305453216176
100.305447253834
100.305412053519
100.305373776679
100.305357693306
100.305395792722
100.305341767879
100.305301151244
100.305267127171
100.305164708331
100.304923514289
100.305238154346
100.30532277105
100.305354837939
100.305384024469
100.305420880125
100.305446942152
100.305446645538
100.30547820973
100.305500898619
100.305510806162
100.305591549422
100.305665219076
100.305557676615
100.305681407801
100.305631449418
100.305543731586
100.305555891978
100.305666376033
100.305739773711
100.305743836641
100.305519000867
100.305262743241
100.305656472589
100.305741233122
100.306000563051
100.306066496979
100.306081460158
100.305880162968
100.305851851362
100.305730958689
100.305580675164
100.305561948476
100.305520587168
100.305489026555
100.305475168162
100.305460118938
100.305424279959
100.305403920744
100.305381829946
100.305267129459
100.305104798715
100.305351990874
100.305430045339
100.305445509
100.305469136991
100.305498484281
100.305507023369
100.305532906225
100.305565480114
100.305583510727
100.30560968462
100.30563191551
100.305839569293
100.305995324352
100.306092817011
100.306067939903
100.306021117865
100.305930340446
100.305926845104
100.305749337476
100.305695155567
100.305653375306
100.305612284763
100.305559092586
100.30553986242
100.305557787717
100.305520318195
100.305508995722
100.30546946537
100.305359864783
100.305278664963
100.305458611418
100.305525576892
100.305581889907
100.305574258896
100.305609143079
100.305668285174
100.305693084883
100.305740729964
100.305784511193
100.305980113907
100.306062947167
100.306008181466
100.305814447216
100.305489186154
100.305815235661
100.305858172116
100.306038299785
100.306046245376
100.306032349712
100.305984789722
100.30585061602
100.305804849677
100.305730800563
100.305779845626
100.305732642307
100.305692977079
100.305651458932
100.305636973822
100.305602536988
100.305591406573
100.305543139159
100.305372838539
100.305303237086
100.3055231586
100.305564557961
100.305670850175
100.305673771763
100.305705664301
100.305727198404
100.305782345751
100.305795855505
100.305835441506
100.305927375811
100.305900197439
100.306021249429
100.306089812295
100.30601941158
100.30607003439
100.306015852547
100.306050650448
100.306106237934
100.306099984728
100.30595306554
100.306127291614
100.306212511272
100.306220918217
100.306191114942
100.306115342622
100.305991871208
100.305926414276
100.305899060707
100.305859482275
100.305840507113
100.305801432123
100.305780640038
100.305741216769
100.305728431316
100.305682755638
100.305535847704
100.305493549606
100.30532960494
100.3052070311
100.305203652461
100.305013647344
100.30490612606
100.304761632073
100.304685842751
100.304713409119
100.304658161173
100.304623270176
100.3044873154
100.304083814776
100.303510831955
100.303701666767
100.303976862284
100.302422708426
100.300371664088
100.299751939331
100.300377895859
100.301741666306
100.303407260573
100.305144387179
100.306900344605
100.308712752623
100.310539307346
100.312276196639
100.31391989697
100.315513594915
100.317024425255
100.318334289787
100.319381777967
100.320106931143
100.320962807418
100.321379555346
100.320586921309
100.319427987788
100.317974175136
100.316321974771
100.314586040691
100.312830082593
100.311059224134
100.309272427712
100.307510525312
100.305775750169
100.304030199344
100.302280424234
100.300693284906
100.299667848891
100.299844226319
100.301576170039
100.30370342564
100.3039095104
100.303372749826
100.303939179699
100.304393773456
100.304578217761
100.304647875202
100.304784448265
100.30498967329
100.305132592133
100.305148215095
100.30518749172
100.305216629498
100.305240045024
100.305277132612
100.305282636206
100.305421407382
100.30556486992
100.305585135171
100.305500902105
100.305437342969
100.305150358617
100.304512373636
100.303663538077
100.303603772219
100.303563214229
100.303591841504
100.303788924418
100.304439198708
100.304439341838
100.3043826203
100.304419218007
100.304479539843
100.305075322198
100.304998893899
100.304979454338
100.305022047529
100.305244137748
100.305364696955
100.304985752819
100.304558463971
100.30394971448
100.303190630851
100.301977895145
100.30246150386
100.303383417895
100.303541356314
100.30425378549
100.304255203254
100.303651321038
100.304081753083
100.304225668128
100.304832464679
100.304769378025
100.30470687701
100.305142885118
100.305227496645
100.305324471691
100.304899839458
100.304381519094
100.30384543414
100.302877775167
100.303296615643
100.303966146495
100.304056843767
100.30476484308
100.30510989206
100.304413547019
100.30473097708
100.305171953827
100.305331624557
100.3057775513
100.305496547882
100.305158700301
100.305431332926
100.305555058834
100.305541505538
100.305480857367
100.305506480074
100.305477610756
100.305472657537
100.305437733245
100.305406969883
100.305363368281
100.30531059041
100.305270668154
100.305221468109
100.305204061895
100.305186758042
100.305172033693
100.305158985973
100.305154592465
100.305143730054
100.305153237742
100.305202660029
100.305210499063
100.305237519729
100.305276830219
100.305291714521
100.305412673904
100.30553175379
100.305529669262
100.30559561808
100.305541478049
100.305402708037
100.30520251794
100.305188399272
100.305191547394
100.305287448241
100.305416971025
100.30556744805
100.30558837519
100.305502455575
100.305230168356
100.304590284783
100.303727748968
100.303755074072
100.302413716811
100.300976988557
100.29877488825
100.298743929183
100.300262624031
100.300876097417
100.302211669765
100.302056613506
100.300703394432
100.300987634805
100.301229258103
100.301622105275
100.299889651073
100.29842642399
100.296363312344
100.298078131454
100.298744108597
100.299642869382
100.300269288584
100.300817717702
100.301780245704
100.302116960498
100.301753931882
100.300942149228
100.300106497298
100.299652341284
100.300615001853
100.300059189255
100.302912014376
100.304854895736
100.305007379818
100.305123293629
100.305107689447
100.305057626478
100.305035875073
100.305008097548
100.305001773961
100.30500085223
100.30499194322
100.304979985855
100.305128261349
100.305140172639
100.305183908533
100.305210847453
100.305230927571
100.305278025804
100.305277222074
100.305288250745
100.305416491294
100.305570859129
100.305586885791
100.3055145893
100.305219397148
100.304597248559
100.303747702891
100.302319592797
100.300896118619
100.298621162899
100.298605230456
100.295772387509
100.292440227068
100.292703675051
100.292809641055
100.293822710223
100.294566269551
100.295447999113
100.292851441606
100.290478622444
100.292254198868
100.293985141592
100.295083319856
100.296416396458
100.296660669686
100.295698023716
100.294164004254
100.293373665791
100.29513062144
100.296795572695
100.297221357033
100.296887069736
100.299069337492
100.302190626136
100.304674797109
100.304873516994
100.304817426241
100.304448824498
100.304747378325
100.304719255206
100.304290410642
100.304684867859
100.304684971645
100.304992398269
100.304980323345
100.30512839141
100.305140484302
100.305183748632
100.305211017983
100.305232303604
100.305246631441
100.305276511627
100.305285313115
100.305419624917
100.305566783606
100.305580978431
100.305513292882
100.305233241103
100.304603975468
100.303783826621
100.302378030592
100.300966864987
100.298736239595
100.295914489092
100.292583874582
100.292425672089
100.288787602444
100.284745355492
100.262226587186
100.261825798238
100.264379311285
100.281165060084
100.284908927822
100.284738716676
100.288769077003
100.288954626419
100.288861067208
100.282525857146
100.285980481314
100.288240982603
100.284465289127
100.279700341615
100.271374301404
100.278932105694
100.284564983336
100.28419319938
100.28730553402
100.289388267078
100.28714363819
100.290568617221
100.292321799215
100.293877020918
100.295119761291
100.295071104307
100.293310827797
100.291775433372
100.291162500006
100.292769500455
100.294004786454
100.293749757145
100.293380749738
100.291518453032
100.292588648787
100.291781244221
100.292291348709
100.29228516942
100.29203930855
100.291943166876
100.29172271732
100.294070680143
100.292117525926
100.294872435299
100.292077271647
100.292193099627
100.291844647706
100.291569209567
100.291348302405
100.292658327478
100.293173391792
100.293506345267
100.29226593368
100.291131280346
100.292433605795
100.2901845486
100.289558528879
100.290270398377
100.291578078861
100.288948974328
100.289421024201
100.290905911616
100.298850051382
100.298059891039
100.29999830603
100.299423242514
100.301036232832
100.302049143038
100.300580263452
100.301735501093
100.301825569177
100.298100578167
100.298953185162
100.298278446137
100.294881852158
100.296385280557
100.296333359078
100.297418501591
100.296860446188
100.297106399996
100.296210743812
100.29493763749
100.295137268896
100.294248099133
100.298658478317
100.302654204419
100.304618945773
100.304969250445
100.305290433896
100.30528460961
100.305207147447
100.305131357545
100.305023346215
100.304789168108
100.304681608476
100.304606518553
100.304575453587
100.30457623256
100.304785761199
100.30498983307
100.305132689174
100.305148161606
100.305187197227
100.305216959874
100.305241914301
100.305238084935
100.305275278791
100.305293962065
100.305411741849
100.30552825028
100.305527247869
100.305429870701
100.305163831771
100.304511542362
100.303662883199
100.302367453549
100.300895338
100.298714467028
100.295943239944
100.292786688506
100.288961091606
100.282579699761
100.28123182564
100.265124910573
100.245743752251
100.167399206617
100.182513512894
100.198811028307
100.203430124037
100.200975435653
100.19731635645
100.208911181698
100.205520105325
100.200276143826
100.211041710271
100.206778953718
100.199955275576
100.209503734324
100.205856931846
100.198800315625
100.207965085249
100.204438907673
100.197417536921
100.206333465283
100.202942236079
100.196071906151
100.204165613867
100.201686615022
100.20238397216
100.201789571793
100.200563007904
100.200662374256
100.200888071492
100.200358275924
100.200303280156
100.200619889008
100.200120486929
100.199779816186
100.200371056535
100.200286589784
100.199994607354
100.200050555766
100.200252773743
100.200488534886
100.200962976945
100.200612930824
100.200302290697
100.200022024531
100.200549122257
100.200415271816
100.200092284146
100.199398830669
100.199336361352
100.199974099213
100.200353854527
100.20051495711
100.199999738776
100.200291171865
100.200609159705
100.200963142763
100.20047930138
100.200243216087
100.200050727382
100.200008693006
100.200290284788
100.200374362556
100.199774175694
100.200113488644
100.200613859154
100.200302962591
100.20037236401
100.200835549182
100.200627101894
100.200545817809
100.201782243079
100.202373484375
100.201680560373
100.204154530281
100.20364330085
100.204747648234
100.202781320621
100.201963857084
100.203856567631
100.203432085267
100.201751766988
100.201330667274
100.201672423347
100.198927955368
100.199677605129
100.200353548881
100.200478114021
100.200551779961
100.200294410378
100.199693967149
100.200170357609
100.199267325219
100.199382275131
100.200187307368
100.199544511424
100.201411977161
100.200954049568
100.200720496964
100.200405782767
100.200579028762
100.200467210035
100.200432052962
100.200453188523
100.200889744632
100.200250146246
100.200144957404
100.200112427667
100.200269394911
100.200806490706
100.200372440034
100.200365712072
100.200440374997
100.200570260672
100.200173035186
100.200322381503
100.200754167577
100.201499219342
100.200103105212
100.20010237586
100.199911121893
100.199925693508
100.200138449796
100.20011343977
100.201503778827
100.200764310585
100.200332653031
100.200178606281
100.200571713034
100.200732558172
100.200930735397
100.200929427029
100.200729141749
100.200587856561
100.20064995439
100.200650440612
100.200589637921
100.200735497553
100.200374814882
100.200368574244
100.200443540673
100.200957352292
100.200178102164
100.200392200082
100.201944384839
100.201364253325
100.201537219284
100.201164004894
100.202364258179
100.201676579834
100.200869659433
100.201248101111
100.201504566088
100.201519065388
100.201230000602
100.200853938
100.20167266628
100.202378779785
100.201156011281
100.201527782595
100.201363544124
100.201946034321
100.200899880012
100.202580358559
100.201940935524
100.201865406999
100.200810310344
100.200719964991
100.200023104579
100.201107101202
100.199674136756
100.200892133323
100.201475402817
100.200428279042
100.201717831902
100.201251036036
100.203341224929
100.204449782818
100.201144712535
100.196064181988
100.202917302361
100.206326022751
100.197401873054
100.204410236109
100.207953202171
100.198773264732
100.205820197388
100.20949247038
100.199892995375
100.206721017172
100.211074419691
100.200255410534
100.205490110472
100.208724872341
100.197257649257
100.201167785323
100.203657065116
100.200528464349
100.197107242737
100.19715550685
100.203490231244
100.200368202464
100.198805253019
100.193318468351
100.198053207444
100.198039095273
100.193368423435
100.188151735237
100.187983482272
100.171119030938
100.240786649614
100.240117954013
100.171650282765
100.168247691723
100.182791308637
100.198735507044
100.203224769624
100.192311802892
100.186797577124
100.191720354647
100.190204615911
100.195902007658
100.206207293834
100.201882217829
100.201078472579
100.206784237146
100.20344353599
100.202142382435
100.205578715245
100.202503698854
100.201537858295
100.203870596672
100.201247223132
100.20069866321
100.202274572131
100.199943507077
100.203963838321
100.202982111147
100.201092368501
100.201696327768
100.203192816032
100.201744282425
100.201413568711
100.200003637929
100.20239417961
100.202814460012
100.200020820229
100.204097919939
100.204949769628
100.201533978797
100.205098893924
100.206968577777
100.202836446166
100.206051253402
100.207331985973
100.201983131422
100.20292731036
100.189791759087
100.177791982996
100.178271967293
100.185405576692
100.182990425923
100.182336098324
100.191690651267
100.181637655361
100.184015276702
100.176655077207
100.177848139176
100.188678809682
100.230667860061
100.254171832502
100.231294779849
100.162326369359
100.164004968264
100.186605606763
100.154285891767
100.139618241879
100.205528380717
100.246123418467
100.270289958722
100.280020110293
100.286146834086
100.288433548675
100.28817125767
100.283083952452
100.274586143354
100.26097236809
100.266954528292
100.275945798269
100.283473632729
100.287252523093
100.290540498243
100.293457572763
100.292708533592
100.300133992189
100.302856653757
100.302670366326
100.302804797181
100.302820938197
100.302683405989
100.304604749046
100.304802460626
100.305001615034
100.305143656384
100.305153353821
100.305203743009
100.305210513572
100.305217502547
100.305250572047
100.305281077822
100.305302111514
100.305407973897
100.305501707238
100.305481084081
100.305376561607
100.305094406522
100.304501085637
100.30364921034
100.302340377957
100.300988634954
100.298943185284
100.296527160103
100.293736262202
100.290529471307
100.285983181934
100.281127758108
100.27471484166
100.254245803344
100.230221695454
100.188581362136
100.178110081013
100.176784659975
100.18415577511
100.192489890241
100.186381702112
100.19070399345
100.190250151288
100.196050837606
100.206198892723
100.201796198146
100.201036642025
100.20680391837
100.203465959436
100.202154137799
100.205597284404
100.202501109177
100.201549472632
100.20389931709
100.201245908441
100.200714412762
100.202278155746
100.199947062221
100.201808792298
100.204451368612
100.203422179488
100.20175779663
100.201324475434
100.201699930358
100.201964942985
100.203852105591
100.203643202719
100.20477579191
100.202792661497
100.20241618409
100.203188259748
100.201241443879
100.200600121955
100.202199932812
100.203974680597
100.202984270474
100.201096566426
100.201724067157
100.20042821927
100.201483394151
100.200896987933
100.199680222523
100.201118303428
100.200028592502
100.200720056204
100.200809310951
100.201878939723
100.201965143151
100.202604838244
100.200911370032
100.200182825975
100.200800491835
100.200221790666
100.200788739819
100.200454872585
100.200929437563
100.20150511629
100.20090070523
100.200540043831
100.200533123176
100.203084271677
100.205251523682
100.202834264335
100.201817412905
100.201961822798
100.202391872741
100.2021738093
100.202669697026
100.202664219931
100.20214879722
100.202368870169
100.201939786825
100.202808192509
100.205266130724
100.203092951443
100.203079979464
100.203953672969
100.202966013659
100.201979270669
100.201937459206
100.202325584682
100.201502749158
100.200527041974
100.201947997369
100.201130514677
100.20007195556
100.202481907055
100.202761652708
100.201853507887
100.20177487188
100.202886201866
100.204280065106
100.203247064384
100.20249642798
100.203621108258
100.206689487307
100.205556267807
100.20200198572
100.20213278776
100.208517538508
100.208724719532
100.20114120661
100.19091581735
100.184406985629
100.178732077128
100.182044591443
100.182335551435
100.186598906465
100.188779458853
100.18466789369
100.173664193818
100.17425441819
100.174120174034
100.170855316864
100.161585158977
100.162604771471
100.179176162409
100.17659785542
100.177436566133
100.196733356267
100.194692769052
100.204878536599
100.218423371951
100.21312823002
100.2187315879
100.241713883786
100.263495843689
100.244674203183
100.265662269988
100.276336793954
100.281250419941
100.274993743774
100.273601344266
100.281176888799
100.287096905908
100.290823137661
100.293596973489
100.292914846858
100.293156065077
100.291198333653
100.300571649999
100.299694359218
100.29922456168
100.301780482979
100.301339442443
100.301427993017
100.303779700214
100.303806520639
100.303679621446
100.303040670206
100.302464137216
100.301932239086
100.302235332069
100.301304398172
100.301416574439
100.300798056564
100.300749674195
100.301221183213
100.30116272978
100.301172299473
100.301006815013
100.301068915965
100.301341779955
100.30169088596
100.302132158106
100.302449694884
100.302542567778
100.302378792809
100.301992983128
100.301098416082
100.30055100176
100.300934136323
100.301094405406
100.301118306938
100.300960035791
100.300810399674
100.300685666281
100.300482917151
100.300450444031
100.300373932639
100.300345147603
100.299681411061
100.299563230566
100.300138073637
100.300429535294
100.300688754525
100.300813573444
100.300780605254
100.300498492135
100.300717115784
100.301143993615
100.301348858671
100.300959250812
100.30089754026
100.300613511102
100.300644117552
100.300827311137
100.301414668083
100.301111873872
100.301031645489
100.300651044652
100.300169787643
100.299562507241
100.300473905518
100.301228773218
100.301085810291
100.300141827618
100.300613416162
100.301286637403
100.301326673548
100.301196692629
100.300496095773
100.300376128632
100.300894347562
100.301362787102
100.301539253906