/*--------------------------------*- C++ -*----------------------------------*\
| =========                 |                                                 |
| \\      /  F ield         | OpenFOAM: The Open Source CFD Toolbox           |
|  \\    /   O peration     | Version:  v1612+                                |
|   \\  /    A nd           | Web:      www.OpenFOAM.com                      |
|    \\/     M anipulation  |                                                 |
\*---------------------------------------------------------------------------*/
FoamFile
{
    version     2.0;
    format      ascii;
    class       volScalarField;
    location    "0.4";
    object      p;
}
// * * * * * * * * * * * * * * * * * * * * * * * * * * * * * * * * * * * * * //

dimensions      [0 2 -2 0 0 0 0];

internalField   nonuniform List<scalar> 
81489
(
100.003290936919
100.008115093196
100.001325914655
100.005594435035
100.010909582621
100.00758358064
100.007205942169
100.007258042701
100.007428158276
100.007044092791
100.007649242182
100.010735480249
100.014579809162
100.013414317947
100.011616432986
100.012620956573
100.00976847057
100.007385083183
100.007403178333
100.009782085047
100.012594861253
100.011572470635
100.013380062096
100.014534250664
100.010713390618
100.007618486032
100.007012975273
100.007402881913
100.007230514137
100.007174462693
100.007549726258
100.010889138261
100.014700206289
100.013547540098
100.011609058339
100.012620990923
100.009809307932
100.007449347652
100.007432518263
100.009796097692
100.012644538362
100.011656107902
100.013586867379
100.014739360428
100.007897663608
100.007185866223
100.002908811644
100.00342002603
100.004776905547
100.005196004016
100.005223742363
100.004799610539
100.003400984882
100.002873726032
100.007155839619
100.007869241845
100.005591881365
100.004525192437
100.005225594782
100.005463539252
100.0054170275
100.005090863257
100.004751933588
100.005727223378
100.007859687464
100.007133176095
100.002849080573
100.003359561283
100.004755969365
100.005180816891
100.005150992128
100.004725882245
100.003382426297
100.002887057863
100.007164718635
100.007885984895
100.005730110105
100.004765725406
100.00510752829
100.005434879489
100.005481961617
100.005241325238
100.004540802767
100.001302625297
100.003434807313
100.003343496632
99.9920393266506
99.9944342340814
99.9945681141904
100.004877242818
99.999498338161
99.997583542506
100.000004157772
100.002160539065
100.00219071035
100.000006995264
99.9975343947452
99.9994576942792
100.004847286647
100.004856662202
100.00132992077
100.001291418938
100.00342901119
100.002273775894
100.002250172376
100.00347831944
100.001374442475
100.00121590846
100.004808310276
100.004856550673
99.9994443506798
99.9974870821469
99.999958171424
100.002144917294
100.002116901393
99.9999460815156
99.9975312476094
99.9994829622124
100.00488586496
100.004842910467
100.00121435527
100.001387292204
100.003485370879
100.002267837982
100.0022922885
99.9993542773288
99.9993058451848
99.9920827575082
99.9622825958199
99.9622027069084
99.9566045915581
99.9575775324104
99.9627429714695
99.9931248411545
100.000154539523
99.9994891787967
99.9994850446536
100.000080575262
100.002712237301
99.994566944036
99.9943964294189
100.008126704232
100.003336528356
99.9993272674674
99.9992812645724
100.003059498921
100.007707248435
99.994386779971
99.9945698881897
99.9930673265291
99.9931051580229
99.9945745081934
99.9944249869477
99.9567388946033
99.9565169637375
99.9580243613399
99.9580122141959
99.9564980272729
99.9570252396925
99.9578509178165
99.9578718736233
99.9627921106761
99.9930889557347
99.9871879434946
99.9704787525455
99.9640477931189
99.9638872591309
99.9614316408611
99.9624861652838
99.9570427253963
99.9576771654149
99.9566586538449
99.9622282808985
99.9920114025552
99.9920547667026
99.9623088009787
99.9567905158978
99.9577542583778
99.9628326888582
99.9627840183609
99.9576570901388
99.9570427767245
99.9624986969024
99.9623681704895
99.9616432243257
99.961652151874
99.9623944436727
99.9625116758638
99.9614378160304
99.9627566189353
99.9627516918993
99.9633777409566
99.9633395280257
99.9623848896108
99.9565169059682
99.9580366348605
99.9580509581581
99.9565390718445
99.9570601575891
99.9579055384854
99.9578839106039
99.9614484733678
99.9627595732191
99.9633916984989
99.9633397260248
99.9628300187753
99.9628326438899
99.9633545072745
99.9633930725509
99.9613077375673
99.9611220227332
99.9611218124396
99.9613041183059
99.961249306445
99.9611179936581
99.9628224056222
99.9616541545683
99.9616449953037
99.9623597759266
99.9624716958739
99.9614426397834
99.9627532483331
99.9611258737231
99.9611290661809
99.9613198815017
99.9612647867548
99.9611374908858
99.9611334194406
99.9612631109669
99.958896884448
99.9589240422278
99.9588467356258
99.9588449439799
99.9589155834818
99.9588816364637
99.9588446564054
99.9588469506289
99.9611205357616
99.9628187539662
99.963326964921
99.9633685778126
99.9613024517731
99.9589165307495
99.9588516548538
99.9588567293762
99.9589344811036
99.9589089312258
99.9588722743672
99.958865253923
99.9569364060839
99.956959648181
99.9569669928515
99.9568995264232
99.9568957549456
99.9569512719036
99.9569426630104
99.9569044815063
99.9569047268903
99.9569339824305
99.9588833879035
99.9612510517228
99.9618188083503
99.9591852845318
99.9572108141868
99.9569503973933
99.9569012299746
99.9569124303907
99.9569811535835
99.956979129549
99.9569428237081
99.9551791635083
99.9551754219567
99.9551846994165
99.9551779857408
99.9551270751103
99.955122823561
99.95515134857
99.9551512820753
99.9551217054851
99.9551245814416
99.955137679779
99.9551500175494
99.9551247578213
99.9551450309966
99.9551971102801
99.9552058588021
99.953283719581
99.9532648263392
99.9532599244078
99.9532533820089
99.953247358775
99.9531997198168
99.9531987981217
99.9531991684079
99.9531992590593
99.9531771223194
99.9531853401671
99.9531899164529
99.953196479223
99.9531920970488
99.9532298466205
99.9532686361642
99.9509789726746
99.9509728404058
99.9509213547795
99.9509119897975
99.9509078760066
99.9509005395018
99.9508237222678
99.9508297926396
99.9508612171504
99.950840373668
99.9507843848326
99.9508015694576
99.9508225919239
99.9508129047612
99.9508004388668
99.9508820822631
99.9476418954495
99.9477865597974
99.9477645644339
99.9476810671865
99.9476324818826
99.947627327746
99.9476258295504
99.9475324898198
99.9475401342282
99.9475920192471
99.9475448543589
99.9474435822466
99.9474651390391
99.9475174445882
99.9474609429898
99.9474658510962
99.9423737213873
99.942646973238
99.9425434512852
99.9424326687455
99.9425588169096
99.9425374893723
99.9423694665965
99.9423321329681
99.9425152215788
99.9424874313502
99.9422521365172
99.9421709145196
99.9423605917608
99.9423685386843
99.9421566268915
99.942036263787
99.927354327595
99.9289293586209
99.9289875935327
99.9276049333468
99.9275440760061
99.92944371589
99.9294561498161
99.9276007003387
99.9275245524973
99.9288990128545
99.9286997308622
99.9271528334578
99.9270931067872
99.9286197502252
99.9286109823921
99.9272566422926
99.9409160215893
99.9415692074861
99.9384009237618
99.9383208328782
99.941756391536
99.9416251933182
99.9383129314995
99.9383488306764
99.9416477044884
99.9418191902055
99.938344140224
99.9380370899815
99.9411297529078
99.9406613027129
99.9373560084971
99.9374836841789
99.9962131206802
100.049859403007
100.006690501856
100.006632295411
100.049635467996
99.9963132829345
99.9955709991997
100.049576223133
100.006702970512
100.007662678023
100.051476158496
100.083921334273
100.083557049474
100.051147852343
99.9975812938179
99.9975694420607
100.121752190986
100.221585479602
100.17913589087
100.179207254155
100.151771257531
100.145263796908
100.143603647199
100.006724451783
100.049548037864
100.080308033357
99.9957028644831
99.9952652278848
100.04892529818
100.00585144179
100.006245064192
100.049624047862
99.9961504426773
100.081958982314
100.08207164305
100.176561392833
100.149859564374
100.144036026407
100.142707268978
100.147859163307
100.174823214702
100.175197267547
100.148823256148
100.14406076595
100.145348853514
100.15179879983
100.243859976305
100.283603400598
100.262335772112
100.262301758138
100.283598528572
100.272563351531
100.243685694235
100.338936693105
100.373937658268
100.347480455362
100.337127314084
100.336996835985
100.344255164276
100.280204282296
100.241153478966
100.272363531936
100.337694685875
100.371944915359
100.393152276086
100.400174744413
100.402701600825
100.406981088673
100.408807087277
100.408981946204
100.408857936758
100.408840905874
100.408879306313
100.409019952331
100.409191842243
100.409273827709
100.409205010262
100.409067246849
100.409070031648
100.409423465343
100.41039346647
100.412708266752
100.417489186543
100.42613630591
100.442571807642
100.466440728442
100.504576489285
100.49989991201
100.435914600941
100.378783320359
100.320910911843
100.288389166373
100.309462039916
100.308855169044
100.306516808158
100.306791136821
100.307866823562
100.308962345435
100.310214532702
100.311830272682
100.313759442359
100.315789610266
100.317646853701
100.31906451544
100.319807208683
100.318652848531
100.317214656117
100.315546816163
100.313797972894
100.312041577636
100.310298201366
100.30863308166
100.307130684878
100.305880415463
100.304869288834
100.304010613181
100.303189389729
100.302274554048
100.301165710402
100.299977104786
100.299092527446
100.299069161764
100.300431277393
100.303069184432
100.305023872476
100.305150364432
100.304757991457
100.304826570304
100.304883966486
100.304933821988
100.305006677832
100.30503819878
100.305082211194
100.305098380592
100.305195184834
100.305237244922
100.305495859337
100.305728991499
100.305918629186
100.305944515999
100.305723274593
100.305558343238
100.305745851275
100.305624614763
100.305738600569
100.305587032038
100.305446660044
100.305251125379
100.305206177135
100.305123364194
100.305106643471
100.30505941801
100.305035841699
100.304961880908
100.30490513894
100.304852059364
100.304944576818
100.304995043556
100.305066952951
100.305088605077
100.30513371402
100.30515642857
100.305227605442
100.305272783746
100.305433213858
100.305523212914
100.305517836445
100.305498438491
100.305512363847
100.305547184106
100.305526593741
100.305445228837
100.305413866893
100.305297424833
100.305253110516
100.305193184749
100.305164854782
100.305123265759
100.305095682863
100.30503321807
100.304963116199
100.304891342134
100.305019760215
100.305081206161
100.305137519324
100.305165115616
100.305207290153
100.305244994804
100.305294042866
100.305337709433
100.305346675247
100.305363142685
100.305497323228
100.30557165839
100.305691573764
100.3056008573
100.30543812015
100.305615784362
100.305938084188
100.305778841933
100.305791615403
100.305642095245
100.305557834688
100.305418848995
100.305360291313
100.305303332104
100.305260584798
100.305207739514
100.305184964997
100.305137355861
100.305065767091
100.305016136713
100.304900261357
100.304841290988
100.304957804259
100.305064204427
100.305133280362
100.305208400452
100.305266756827
100.305276090648
100.305342220941
100.305399294467
100.305379517839
100.305464371127
100.305481401467
100.305639552089
100.305725376196
100.30593851052
100.305890442527
100.306008432334
100.306239797096
100.306083412217
100.305872944639
100.305743536015
100.305587627003
100.305543383067
100.30546037653
100.3054450309
100.305377075275
100.305309474585
100.305315129772
100.305290010026
100.305192030388
100.305132088694
100.305013389248
100.304979698079
100.305095897104
100.305184808939
100.305250069267
100.305350002841
100.305373271027
100.305435086019
100.305520555547
100.305550542236
100.305684968661
100.305733399787
100.305886968568
100.306106664464
100.306064191932
100.306233445625
100.306014867046
100.305828002184
100.305847199763
100.306134976058
100.306410618446
100.306645737994
100.306578008412
100.306395622752
100.306807374208
100.306888255238
100.307131309384
100.307186320806
100.307206510961
100.306971698768
100.306751624554
100.306413896692
100.305969943463
100.305801630194
100.305695204528
100.305630336609
100.305516778551
100.305491061078
100.305414027003
100.305318476084
100.305250395346
100.305158676459
100.30509686514
100.305234438803
100.30531504548
100.305395413289
100.305489549368
100.305607332052
100.305634050541
100.305782197543
100.305801442236
100.305786782996
100.305972504763
100.306125713828
100.306631204805
100.306996456992
100.307117626774
100.307119734232
100.307011979338
100.306775027929
100.306785220529
100.30639056604
100.306181986649
100.305975368255
100.305921036672
100.305797272757
100.305672629882
100.305683335414
100.305627406871
100.305507604998
100.305399485658
100.305282286415
100.30523062666
100.30540882187
100.305510564881
100.305644332391
100.305744078602
100.305801727327
100.3059707911
100.30610782599
100.306163832358
100.306411216376
100.306827038794
100.307054085816
100.30708977198
100.306946104905
100.306574527886
100.306982025609
100.306947464697
100.307175545382
100.307158563918
100.306976804192
100.30680004681
100.3065384921
100.306377244557
100.306140518441
100.306200193381
100.306142401314
100.305995492671
100.305928402581
100.305806478933
100.30567362838
100.30558191259
100.305480645179
100.305303428915
100.305328251529
100.305457363719
100.305572859759
100.30574950163
100.305840945104
100.305984255412
100.306031803789
100.306164678632
100.306272388807
100.306357441597
100.306594995054
100.30663299751
100.306856241019
100.307090521185
100.307043527141
100.307095445756
100.306879889119
100.306956819917
100.307169524672
100.30730876649
100.307188333909
100.307390640356
100.307505318382
100.307476522283
100.307318626361
100.307109975943
100.306803278994
100.30666164428
100.306485519544
100.306424229688
100.306319243545
100.30619509703
100.306167619338
100.306013158551
100.305907526726
100.305760145949
100.305560457492
100.30552146863
100.30542255964
100.3053813685
100.305223104224
100.305125986881
100.305022387896
100.30498659452
100.305017906801
100.304788741441
100.304771682296
100.305080947509
100.305173850093
100.303592032374
100.300943514903
100.299377783604
100.299139635139
100.299823366889
100.300902699444
100.301984258198
100.302915585535
100.303759108844
100.304622932812
100.305620944862
100.306849408091
100.308323202148
100.309955585439
100.311630493585
100.313290197522
100.314933443941
100.316501988941
100.317850524587
100.318935987777
100.319688297588
100.320598669194
100.321047010944
100.320237248451
100.319048555002
100.31756299349
100.315842560922
100.314038757868
100.31223654052
100.310468036233
100.308794041602
100.307284827148
100.306022811148
100.305000371405
100.304142461941
100.303334195905
100.302431116375
100.30131421321
100.30007321065
100.299088220391
100.298931283296
100.300167179526
100.302762490048
100.30494119803
100.305209642923
100.304751017831
100.304809637818
100.304840956296
100.304903341103
100.304945955666
100.305003240461
100.305056737722
100.305070568024
100.305186197733
100.305188034541
100.305612615902
100.305996679339
100.306212362618
100.306272024854
100.306116511873
100.305962688475
100.305399249658
100.304580447169
100.304479839553
100.30439177674
100.304416934208
100.304574771829
100.305263625695
100.305138386414
100.305095846262
100.305167196138
100.305322577759
100.305800875433
100.305588007162
100.305512984645
100.305503161708
100.305580508786
100.305639403824
100.305471132278
100.305181909534
100.30475934752
100.304108126895
100.302915983491
100.303434305414
100.304437503076
100.304448262955
100.305102278258
100.305204904247
100.30463637988
100.305106436025
100.305279156454
100.305918147774
100.305748377651
100.305669390847
100.305978400763
100.306108640221
100.306286464069
100.305936741493
100.305530328196
100.304990379796
100.303811735944
100.304214743104
100.30496216285
100.305164266199
100.305921377874
100.306192538509
100.305338505929
100.305598436571
100.306196375851
100.306353093286
100.30686274409
100.30663365389
100.306162672835
100.306436938586
100.306309585935
100.30590654967
100.305593351654
100.30545433026
100.305537106638
100.305468448734
100.30538758039
100.305326484927
100.305260045839
100.305213114439
100.305144527917
100.305094648697
100.305044843012
100.305017288178
100.304988211338
100.304963585725
100.304942266501
100.304915034118
100.304980024573
100.305019086043
100.305066677276
100.305072072429
100.305187327084
100.305218575006
100.305549857289
100.305865957085
100.306072806528
100.306171463909
100.305836547396
100.305429481904
100.304936697401
100.304881857012
100.304876968575
100.305201795103
100.305625209239
100.306036129509
100.306241326021
100.306299423878
100.306094814165
100.305478541414
100.304594586408
100.30463441783
100.303290433638
100.301899118832
100.299589028266
100.29963706939
100.301200066763
100.301855146811
100.303156652935
100.303012711153
100.301641906225
100.301959916008
100.302197332508
100.302596439635
100.300912480947
100.29939327803
100.297116445124
100.29894817933
100.299592996929
100.300557153296
100.301207599338
100.301671727009
100.302716652639
100.303096419362
100.302827569251
100.301920893942
100.301074336719
100.300627169045
100.301702769554
100.301124914872
100.303574287362
100.304818204154
100.3049302869
100.305012023196
100.305000905146
100.304963375065
100.304949797079
100.304917432071
100.304852846338
100.304921918593
100.304902445495
100.304824809678
100.304897454462
100.304925473777
100.304985671286
100.30501707181
100.305117350623
100.305188347422
100.305183486195
100.305202512915
100.305622587532
100.306039749262
100.306244737569
100.306310556783
100.306086722511
100.305486898349
100.304615446382
100.303173514241
100.301800078634
100.299414203821
100.299392340486
100.296622498517
100.293272534
100.293532978541
100.293664999166
100.294637677544
100.29540000007
100.296230440527
100.293491839863
100.290873061673
100.292643577379
100.294337697773
100.29540729408
100.296803729903
100.297230074294
100.296327616695
100.294763531136
100.293826179289
100.295819748842
100.297632712749
100.298043449424
100.297733222786
100.300199462802
100.302977870748
100.304601538453
100.304827851891
100.304748747088
100.304310439519
100.304696357158
100.304688425023
100.304188321046
100.30464881346
100.304648953226
100.304902795226
100.304825114039
100.304897531523
100.304925978232
100.304984289845
100.305014955781
100.305122316203
100.305116638427
100.305181336277
100.305192494566
100.305606102413
100.305988909992
100.306209564332
100.306275220291
100.306088239664
100.305489419984
100.304657155259
100.303251316572
100.301888721363
100.299554578565
100.296777578298
100.293420927644
100.293271890236
100.289664071154
100.285537184967
100.262841752705
100.262437469007
100.264980941165
100.281869113079
100.285663735065
100.285529805553
100.289632581563
100.289794221054
100.289675825956
100.283211623045
100.28655700372
100.288741892381
100.284767215152
100.279886672179
100.271265061636
100.278800511875
100.284597858582
100.284270512015
100.287497382492
100.289520747283
100.287065901198
100.290463810976
100.292219844757
100.293759851272
100.295055776608
100.295122833708
100.293385743334
100.291852371133
100.291049563409
100.292860616985
100.294249754508
100.294145748487
100.294744379444
100.292708387465
100.293888264866
100.292489910526
100.29257669336
100.29252188425
100.292605150644
100.292714888598
100.291471887526
100.293990333011
100.290401154099
100.295693413003
100.291898114705
100.292009705276
100.291936406198
100.291814429199
100.291594788322
100.29264232456
100.292886059589
100.293150316619
100.291955732697
100.290885400297
100.29216641672
100.290413385108
100.289509782929
100.290059157991
100.292663374697
100.287866098562
100.289239995783
100.290772650445
100.301749348581
100.300621957946
100.300958130647
100.300680727916
100.304036603872
100.304710231349
100.30224548084
100.302418104302
100.30265527284
100.297312951293
100.299258455385
100.297961335679
100.294108420407
100.295869736384
100.296240777677
100.297124111262
100.296357902788
100.296831765303
100.295897271189
100.294609628739
100.294805139881
100.29385162427
100.299108809297
100.303688237166
100.304465145497
100.304984595977
100.305235890159
100.305220790967
100.305112209237
100.305054839388
100.304993740373
100.304990475785
100.305002461004
100.30496236426
100.304936339682
100.304934537289
100.304809359096
100.304841567491
100.304904246706
100.304945563589
100.305000578312
100.305055125105
100.305075391599
100.305073104178
100.305179038071
100.305223373821
100.305544687513
100.305846003946
100.306055199668
100.306091099813
100.305953785456
100.305381771486
100.304560401267
100.303294989512
100.30184841058
100.299601801458
100.296877380688
100.29364509966
100.289778967015
100.283285557491
100.281976936272
100.265749854154
100.246226577854
100.167436001648
100.182476203001
100.198752828136
100.203489101738
100.201162056025
100.197680886992
100.209331420974
100.205901541115
100.200587428278
100.211342852965
100.207043434916
100.200164784588
100.209701772449
100.206031317053
100.198912077439
100.20807008781
100.204547293151
100.19746678916
100.206379378725
100.203010568128
100.1960895302
100.204174683642
100.201650734124
100.202423136622
100.201811213682
100.20058835222
100.200699996632
100.200927030679
100.20037206728
100.200309610193
100.200621978628
100.200117088582
100.199770221378
100.200371825818
100.20028913339
100.199989477919
100.200048803248
100.200266931256
100.200504014764
100.200987557019
100.200618278453
100.200310173955
100.200047525171
100.200551830894
100.200407545895
100.200090203466
100.19943272325
100.199371726721
100.199976574815
100.200347096705
100.200518066083
100.200025934307
100.200299381209
100.200615200205
100.200988291301
100.200494904109
100.200257307196
100.200049545603
100.200004519867
100.20029326789
100.20037659377
100.199764176749
100.200109902687
100.200614829379
100.200311169025
100.200386969136
100.200872363156
100.200661551142
100.200567289676
100.201796232581
100.202400995181
100.201636754162
100.204145141866
100.203740038077
100.204868908215
100.202823019634
100.202018711405
100.203978284808
100.203523175635
100.201796728252
100.201360517614
100.201709055305
100.198931161961
100.199646650511
100.20034227452
100.200475739894
100.200550321022
100.200291210187
100.199668790548
100.200151893789
100.199253884502
100.199379476394
100.200144402592
100.19955955617
100.201457933052
100.200974536311
100.200707403232
100.200381196154
100.200563684737
100.200463051902
100.200426159489
100.200443259988
100.200881405908
100.200234762925
100.200130304082
100.200100116182
100.200264769738
100.200801264818
100.20036473945
100.200348112994
100.20043982591
100.200569884738
100.200170962073
100.200339294947
100.200753831398
100.201487968472
100.200072311096
100.200095415307
100.199924688936
100.199939373714
100.200129277336
100.200081839613
100.201491057566
100.20076574436
100.20034758609
100.200173125542
100.200570535089
100.200725632739
100.200931642034
100.200932230655
100.200720386081
100.200580898132
100.200657964449
100.200657212452
100.200581608774
100.200735400616
100.200364745963
100.200350532657
100.20044239367
100.200949142038
100.200148431507
100.200359092604
100.201953778452
100.201334179531
100.201537504014
100.201175395052
100.202338635073
100.201650687515
100.200862845363
100.201236662708
100.201519088573
100.201535032466
100.201222182809
100.200849677259
100.201646386077
100.202353978784
100.201163810229
100.201525371292
100.201337495618
100.201957809152
100.200884694986
100.202539615248
100.201914801075
100.201884006903
100.200821352974
100.200722129423
100.20000879804
100.201124565254
100.199647017157
100.200896474483
100.201490223342
100.200429261811
100.201740520008
100.20127203954
100.203409971384
100.204541454259
100.20118522862
100.196068125073
100.202962585174
100.206346007637
100.197434278243
100.204487438049
100.208022719442
100.198853035323
100.205956252693
100.209652070835
100.200053000128
100.206928215083
100.211336218803
100.200529035094
100.205829616818
100.209093301474
100.197556956795
100.201282788148
100.203743962985
100.200486474387
100.197104280183
100.197194465926
100.203624221271
100.200366373865
100.198723450272
100.193259101202
100.198047093871
100.19801085535
100.193281741039
100.188093102508
100.187994021651
100.171166990915
100.241307831696
100.240613236026
100.171645975243
100.168221245517
100.182674821861
100.198607589665
100.203216782561
100.192132184494
100.18664912164
100.191598427383
100.190421874242
100.195953012881
100.206302155653
100.201992872427
100.20107045477
100.206919940796
100.203511968346
100.202107543081
100.205678872218
100.202558573815
100.201507343069
100.203982750549
100.201280265658
100.200688349734
100.202348315867
100.199922572452
100.204043195048
100.203040465284
100.201109160924
100.201718347142
100.203273652976
100.201770720708
100.201419775073
100.199884823319
100.20236286448
100.202856817604
100.199947184324
100.204115841871
100.205053193144
100.201538006265
100.205124364144
100.207017844394
100.202932197185
100.206027225358
100.207256541267
100.201957574324
100.203069127064
100.190575496211
100.1781258145
100.178397975356
100.18549059521
100.182813699056
100.182018437105
100.191210741121
100.180956667973
100.183705933007
100.175962608644
100.177252866402
100.188379869516
100.230593587959
100.254019833028
100.230938858011
100.161491258602
100.16335138963
100.186345402334
100.154094932444
100.139432529201
100.205181239443
100.245553133713
100.269901500984
100.279739846906
100.285914640345
100.288249041146
100.287996879
100.282846280318
100.274272639023
100.260734982774
100.266638058014
100.275718311964
100.283375888707
100.28737784344
100.290806308756
100.294021198642
100.294110478953
100.302891396414
100.30340350215
100.303353955172
100.30343988101
100.303438624668
100.303353759005
100.304966193027
100.304828049097
100.304854691747
100.304916801224
100.304980604593
100.305021853839
100.305066543991
100.305081253055
100.305097982391
100.305190266849
100.305237041732
100.305490938732
100.305721371616
100.30590436549
100.305925712167
100.305801881984
100.305320690591
100.304534778331
100.303298645969
100.30198432905
100.299845821382
100.297471361024
100.294561356051
100.291271933324
100.28657328631
100.281587062465
100.275026040969
100.254127032834
100.230185298364
100.188289737774
100.177546329259
100.176132086096
100.183896108159
100.192358282567
100.186269457457
100.190587432235
100.190500248973
100.19610404594
100.206287956932
100.201903256353
100.2010324038
100.206945432114
100.203541190036
100.202121858592
100.205702353494
100.20256306801
100.20152834902
100.204014966501
100.20128154068
100.200709043434
100.202354360659
100.199939527012
100.201847275771
100.2045503265
100.203516945341
100.201805512694
100.201355326559
100.201738165462
100.202020006088
100.203972748115
100.203742595817
100.204902692013
100.202840169828
100.202499681864
100.203279961881
100.201218827527
100.200597211884
100.202220527916
100.204060930595
100.203047689975
100.201115477026
100.20174851225
100.200430435105
100.201500190113
100.200899982703
100.199654281976
100.201138675591
100.200013861611
100.200722123609
100.200820322172
100.201896911213
100.201936902992
100.202563694502
100.20089751019
100.200146595262
100.200773328785
100.20020338142
100.200789113877
100.200406421018
100.200931280115
100.201512714209
100.200878592968
100.20045309555
100.200508190683
100.203129521039
100.205304137066
100.202919800126
100.20185478268
100.201935622549
100.202383372636
100.202131522703
100.202677500491
100.202671065065
100.20210981072
100.20235725292
100.201910401026
100.202892762562
100.20532110357
100.203141368536
100.203130163934
100.204025458334
100.203025344346
100.202012612427
100.201952672376
100.202315143441
100.201502316147
100.20050119078
100.201920464161
100.201197115625
100.200069302402
100.202483008419
100.202690365027
100.201762166256
100.201867972107
100.202983266762
100.204167452614
100.203186211914
100.202592581212
100.203678166141
100.206565732044
100.20550771809
100.202113994679
100.202118159489
100.208439661936
100.208593627759
100.201030253912
100.192000364063
100.185469643683
100.179101928756
100.182364646228
100.183272661247
100.188060172068
100.190440520957
100.185826057088
100.173469253905
100.174557186966
100.173555755421
100.170854202483
100.162103125529
100.162265166105
100.179547518145
100.176501102013
100.177173298541
100.196366157507
100.194306616217
100.204308468425
100.217743741694
100.213168639168
100.218793303832
100.242048334324
100.264087908832
100.245088842985
100.266059918329
100.276933296211
100.28168951187
100.275283506915
100.273789514896
100.281593796886
100.287706495267
100.291593601004
100.294467130845
100.293782460627
100.2942368387
100.289763324505
100.30439572792
100.303108583477
100.302297735301
100.305171085294
100.304934798659
100.304979703234
100.306163411301
100.306841895684
100.306667795544
100.306005170229
100.304790044086
100.30350209159
100.303624552681
100.301193758286
100.301604289206
100.300026607739
100.3000621251
100.300673917914
100.30089594123
100.300852303848
100.300685288728
100.300840746251
100.301198919722
100.301588160731
100.30213375174
100.302453092212
100.302553178679
100.30253116023
100.302037643626
100.300934464603
100.300254231229
100.300696216821
100.300859721652
100.300789852626
100.300623621648
100.30048961083
100.300296645337
100.299966499291
100.299951169574
100.299887036672
100.29990003493
100.299229976444
100.299044986806
100.299820856401
100.299987120363
100.300207377295
100.300400147294
100.3005098086
100.300285692989
100.300445217825
100.300581186631
100.301160062275
100.300749737911
100.300451305982
100.300096378576
100.30010912562
100.300159366719
100.300897093894
100.300439167142
100.300226553681
100.299933092417
100.299246176744
100.298481875064
100.299311255665
100.300317369258
100.300189923224
100.299050977328
100.299538487136
100.300361850048
100.30040833828
100.300299608254
100.299343323104
100.299268805266
100.299850686338
100.30037900122
100.300655187163
100.300785556466