/*--------------------------------*- C++ -*----------------------------------*\
| =========                 |                                                 |
| \\      /  F ield         | OpenFOAM: The Open Source CFD Toolbox           |
|  \\    /   O peration     | Version:  v1612+                                |
|   \\  /    A nd           | Web:      www.OpenFOAM.com                      |
|    \\/     M anipulation  |                                                 |
\*---------------------------------------------------------------------------*/
FoamFile
{
    version     2.0;
    format      ascii;
    class       volScalarField;
    location    "1.1";
    object      p;
}
// * * * * * * * * * * * * * * * * * * * * * * * * * * * * * * * * * * * * * //

dimensions      [0 2 -2 0 0 0 0];

internalField   nonuniform List<scalar> 
79506
(
100.128165438582
100.130250859925
100.126483451244
100.131026823439
100.137982186892
100.138222020519
100.136281597092
100.136888600128
100.137278041938
100.137451601378
100.1378463466
100.137468174278
100.139148346917
100.138587488693
100.140715847012
100.140741554247
100.138679908955
100.135799933811
100.132588440583
100.13220742294
100.132309082077
100.134070829548
100.131657634696
100.132853211901
100.134795024416
100.13963012693
100.13423214769
100.133219765943
100.132464236984
100.132109727021
100.132202875772
100.132267538089
100.133095933416
100.13405468552
100.139539677426
100.134554272069
100.132570340635
100.131313373169
100.13369420553
100.131901269075
100.131838139651
100.132226072003
100.13545033436
100.138372322024
100.140324028655
100.140198514858
100.133550716141
100.132357930791
100.128970154276
100.129477792507
100.130006313499
100.12984649679
100.129938886401
100.129946594138
100.127704791549
100.130932741813
100.134624190223
100.133140991278
100.129756736749
100.128814445797
100.127789591775
100.128635700144
100.128719177287
100.12805667405
100.128937175159
100.129944596154
100.133447749406
100.134921064572
100.131199848095
100.127985568651
100.130284011232
100.130306389794
100.130155905294
100.130279448149
100.129647793523
100.129144266414
100.132670549466
100.133919661275
100.131505542331
100.134823052533
100.1379984765
100.139795684757
100.137809660205
100.137249220822
100.138318959193
100.136467323184
100.133985485155
100.129794888994
100.135246714626
100.123662223456
100.112447041409
100.118626579998
100.120241447752
100.129502115419
100.123658783966
100.124805158198
100.127526940709
100.126844892435
100.126347303315
100.126375101818
100.126342399007
100.130922334193
100.131725554637
100.127193331894
100.12755530629
100.125022636375
100.123837260611
100.124731899637
100.124744108337
100.123869166786
100.125133758514
100.127768518867
100.127473653781
100.132009527286
100.131219562885
100.126627937364
100.12673498399
100.126722050033
100.1271643707
100.127824710043
100.124996528617
100.123779121916
100.129950764042
100.130428577939
100.12698252839
100.130830444489
100.137350703377
100.142566897819
100.136013084314
100.135479110416
100.140028663803
100.15549313789
100.124379330453
100.124890076865
100.10986000116
100.08320825095
100.084063762749
100.079752920585
100.080460900129
100.086655012587
100.11688476239
100.127149803858
100.124253448116
100.12401369367
100.128163184441
100.134378729303
100.117658211224
100.118216569713
100.119635620866
100.128975545376
100.124028909343
100.124053152636
100.129094418078
100.119643559089
100.118349654555
100.117850460563
100.116438158764
100.117164463237
100.120693374248
100.11850353698
100.078586654604
100.080641851362
100.081937066032
100.081687261859
100.080611760895
100.080662809275
100.082561737296
100.082989064816
100.087101874926
100.11623669321
100.111384018374
100.095067733223
100.089288069398
100.089215257346
100.08652751624
100.087318918051
100.08182560587
100.081934212707
100.084078280815
100.087811482103
100.087721340296
100.083913999504
100.081777035175
100.087132076576
100.086348351749
100.079977080238
100.080585010213
100.087105710324
100.087562248287
100.086701364616
100.086395802758
100.087268140015
100.087135477712
100.086402027061
100.087633448197
100.087714172591
100.088189395332
100.088263793168
100.087617855935
100.082831637006
100.083641267245
100.083611694614
100.082797634371
100.081793990633
100.082743770252
100.082291620193
100.086221156448
100.087500821345
100.088130740572
100.088416967269
100.087722658552
100.087667982078
100.088383517459
100.08829629177
100.086161199189
100.085956412974
100.086044718886
100.086127707596
100.086195911297
100.086061070207
100.087886689005
100.086981629069
100.086969822918
100.087561324788
100.087113174438
100.086313234324
100.087529046733
100.085848023424
100.085755225902
100.085912838137
100.08601307833
100.085824673339
100.085873812956
100.086177903519
100.083743501225
100.083756724842
100.083703417181
100.083778563955
100.08376163433
100.08380893603
100.083741556047
100.083705016319
100.086021638103
100.087856791138
100.088186510553
100.088027942872
100.085959211772
100.083583754839
100.083567752196
100.083465143511
100.083510244592
100.083551961418
100.083529391333
100.083595412506
100.081705084126
100.081822804828
100.08183949012
100.081786491917
100.081848085278
100.081832825583
100.081855891649
100.081787216026
100.081753108935
100.08175417721
100.083708475882
100.086083466628
100.086490958088
100.083888238863
100.081882621567
100.081658274437
100.081636414141
100.08157245965
100.08163435019
100.081671254771
100.081639687458
100.079932662872
100.080002971377
100.080104598944
100.080112614601
100.080058007203
100.080118772402
100.080105605413
100.080115980818
100.080049882331
100.080018823622
100.080018766284
100.079942470926
100.079925193581
100.079887226955
100.079939060085
100.079958349225
100.078212351002
100.07818117405
100.078248832519
100.078345889988
100.078331769226
100.078289170852
100.07836448261
100.078351951658
100.078362066896
100.078311318348
100.078286152271
100.078282283032
100.07821577969
100.078204228977
100.078179192538
100.078211950275
100.076446782413
100.076508398266
100.076354047442
100.07633685566
100.07651351322
100.07648965126
100.076454249064
100.076550182819
100.076546049862
100.076566729288
100.076534664073
100.076518797321
100.076511837375
100.076452210661
100.076440335316
100.076419609807
100.074633002985
100.074613444655
100.074700944292
100.074377529177
100.074240016143
100.074505130587
100.074569737898
100.07459360296
100.074714096666
100.074728236311
100.074763512681
100.074754537481
100.074750966735
100.074744436148
100.074693670168
100.074670782718
100.072906802173
100.072827887198
100.072725841371
100.072669483128
100.072831247057
100.07271711682
100.072485564593
100.072658333625
100.072738695286
100.072881926572
100.072924837144
100.072984308588
100.073002069462
100.073012197736
100.073005075308
100.072952023697
100.07123047928
100.071145058377
100.071004299344
100.070850001306
100.070566315878
100.070955724214
100.070988503002
100.070595061716
100.070800490724
100.070893978361
100.071067024519
100.071149251012
100.071248365082
100.071300335318
100.071320547349
100.071303615453
100.069649042309
100.06952913916
100.069377486932
100.069135051423
100.068945991331
100.068562225141
100.068410474804
100.068528966978
100.06870698579
100.068886161845
100.069028591134
100.069266473644
100.069419239563
100.069578078412
100.069673911741
100.069696877098
100.068160415818
100.068041631475
100.067832100157
100.067572485763
100.067164479585
100.066866680571
100.066506199268
100.066079509714
100.066126610405
100.066508342344
100.066761151566
100.067092501474
100.067465745942
100.067718881348
100.067977842133
100.068143372661
100.066708236352
100.06670894851
100.066422671874
100.066078174779
100.065625732893
100.064947759614
100.064383848821
100.063931581082
100.063309180111
100.06327565141
100.063811311667
100.064301022114
100.064975925203
100.065581593305
100.066033352588
100.066405762808
100.064672049822
100.065239486189
100.065206308549
100.064593680527
100.064108352991
100.063287675189
100.062165162778
100.061190141328
100.060427748969
100.059224121222
100.059279310643
100.060490436093
100.061254100648
100.062367994144
100.063394604371
100.064196939125
100.061809261165
100.062362230571
100.063361916611
100.063275468325
100.06205521476
100.06151998105
100.060213290798
100.058257243433
100.056250388048
100.055082921472
100.052935089577
100.053107806679
100.055453345461
100.05660319271
100.05873339908
100.060562711609
100.05568969957
100.057425450527
100.057499166459
100.060002505638
100.059876718373
100.057043642289
100.056858622692
100.055026708194
100.051657782014
100.047298287954
100.045996065025
100.042619086492
100.042632854863
100.046397478769
100.048282401541
100.052460562981
100.043116469789
100.04826878155
100.050340281155
100.048748299822
100.054327500543
100.054106519616
100.048144295766
100.049236943706
100.046905710028
100.041777853167
100.033486952978
100.031772186575
100.026865575935
100.026857550309
100.032400717729
100.034834055978
100.056986440763
100.063685585175
100.07132077875
100.080833720247
100.073295419647
100.077191949074
100.076968551724
100.072351878384
100.079023008731
100.068887976498
100.061243365545
100.054714767098
100.040063554184
100.075761910104
100.09593739675
100.096966763322
100.078111287675
100.037897580665
100.037554955942
100.140362410307
100.224571597278
100.159478237703
100.160471910244
100.158060413304
100.150394098027
100.144635826931
100.192987082863
100.234992870384
100.142289695133
100.154548101252
100.217944423429
100.173695121109
100.172343666621
100.161667439905
100.161056459054
100.170806322889
100.171199367079
100.215243174927
100.15170849379
100.139039044523
100.189175782505
100.141147648535
100.147325162352
100.155548335364
100.243288738885
100.251409776752
100.252824500435
100.246024466768
100.261120348976
100.271006780464
100.28780558231
100.327788506076
100.343321908888
100.244576489659
100.281008224064
100.373932132586
100.32018545551
100.311707039607
100.298032462063
100.319182434768
100.264212454478
100.26356984479
100.318127522477
100.296579218746
100.309047066379
100.317786072745
100.34283815806
100.324720245573
100.283517453605
100.266748890496
100.257129400447
100.331497669859
100.365243529201
100.331534837089
100.333460922604
100.370081543861
100.362934312825
100.336799702571
100.429132752468
100.455317065674
100.423087297498
100.452340535689
100.461565915505
100.416440944985
100.369196701497
100.41649096006
100.361351876738
100.452348068749
100.478065992131
100.462867141354
100.474205773798
100.497073598091
100.464665614383
100.408810443221
100.431684614486
100.468558953146
100.417941409563
100.437381605706
100.438597592798
100.399765521477
100.432639204061
100.410994328958
100.345840810703
100.345374590795
100.410288951017
100.432149165536
100.398509034259
100.437264572937
100.43642676323
100.415575970673
100.466324361283
100.433178473535
100.405332997044
100.411009656841
100.362934934974
100.356378610093
100.408521250705
100.444560341925
100.417528152785
100.429155589359
100.452233303925
100.453413101762
100.433183374842
100.403441236016
100.401362438943
100.463168188201
100.484454827013
100.475022853844
100.476523042235
100.482052658887
100.481027952252
100.463085337042
100.491846253409
100.495425851924
100.489946362961
100.494909588874
100.496042972156
100.489820954113
100.480775392847
100.486797774773
100.492169102526
100.503848854535
100.491207198794
100.506365235817
100.50357731854
100.502108747995
100.502571303078
100.501993729535
100.50336711002
100.502192128507
100.500833240353
100.496897324793
100.486990652178
100.491905374106
100.500649377005
100.477463969473
100.479673972277
100.470498061755
100.477823718787
100.457129689906
100.457052016204
100.478418823575
100.47101307216
100.480331165422
100.478796747674
100.502844243047
100.495668713517
100.48989061299
100.461708706213
100.470025046338
100.457182041673
100.453456290185
100.478920406345
100.47321564877
100.474828749951
100.478706861093
100.486921476201
100.489588742087
100.495738441985
100.496081599103
100.492147702767
100.484036277958
100.482582549004
100.496686898297
100.502660387593
100.501514573446
100.501599631596
100.502399741552
100.501096533625
100.496503689082
100.50202746771
100.504135349981
100.504261309995
100.505493498035
100.503083614634
100.502518633277
100.499357780159
100.501457241059
100.501399721199
100.500160336175
100.49668414867
100.50178709657
100.497124585381
100.502798073473
100.501426957782
100.501129568742
100.502570247724
100.501901993658
100.503205912418
100.501755816384
100.498893275381
100.500865332016
100.499121692128
100.497211540433
100.498971233238
100.501206234106
100.500741448972
100.500873100071
100.501818034292
100.501065694919
100.500179068107
100.499369383318
100.502116473839
100.498671252711
100.500066535929
100.50089704236
100.492339060021
100.493843462117
100.489914921218
100.495196591261
100.495294476598
100.484247655063
100.484804271368
100.496475611004
100.498422746262
100.491885788714
100.496976153116
100.495018054559
100.503372247029
100.503331218791
100.501324641793
100.505696207393
100.50205391256
100.501926855749
100.498788149956
100.497386187067
100.485439096235
100.486986634915
100.488514425271
100.488405020455
100.488954858275
100.493383261727
100.49640226034
100.500713588366
100.504164205181
100.504816560013
100.508859649224
100.508545173849
100.50588317447
100.502730152131
100.50278929293
100.507664400273
100.510600970623
100.510888301498
100.510886925292
100.510022450625
100.509265592734
100.506310293562
100.506112586558
100.50616830946
100.509427926273
100.510592575947
100.51105735626
100.510025480646
100.506399824445
100.506389443957
100.502556322818
100.502433513759
100.502127548238
100.501812649057
100.503925504211
100.505810542679
100.503500862606
100.504049416192
100.503548135378
100.501667883383
100.498728027533
100.495545553953
100.493127203617
100.493779803878
100.499508084435
100.512504814624
100.530726627193
100.570130939763
100.582594663706
100.517204422346
100.471195954179
100.430609230971
100.383777323285
100.357122766189
100.375322749762
100.372727485336
100.370708612166
100.371171288449
100.37210656121
100.373029817838
100.374211187232
100.375823586289
100.377739088243
100.379683017109
100.381373621729
100.382614486517
100.383268919386
100.381923482088
100.380385195262
100.37872033217
100.376975099997
100.375218211275
100.373566382733
100.372126984373
100.370901326127
100.369834011556
100.36889228076
100.368045443265
100.367293978928
100.366676481309
100.366282902402
100.366230473343
100.366648683872
100.367590494402
100.369040264863
100.370668535074
100.37207629156
100.372702985578
100.372772176341
100.372794332967
100.372849788954
100.372879565183
100.372893210474
100.3729390539
100.37297053342
100.372971050851
100.373067461596
100.373116205865
100.373295876492
100.373406010462
100.373330714133
100.373189506771
100.373025087346
100.373072048709
100.373315781659
100.373188039307
100.373205390669
100.373209633959
100.373040109086
100.372927501483
100.373031821296
100.372930303027
100.373065523888
100.37300613418
100.372986221711
100.372833574658
100.372872670608
100.372862128481
100.372838929078
100.372796030765
100.37276677632
100.372771585276
100.372713540339
100.372592844244
100.372563210331
100.372625594473
100.372557624792
100.372629100011
100.372662277117
100.37272117102
100.372700781545
100.372719129045
100.372747564423
100.372816767413
100.372822237725
100.372834805889
100.372871343521
100.372914083017
100.373020243105
100.373048584785
100.373107216735
100.373079873601
100.373382043391
100.373501841426
100.373529662713
100.373617809769
100.373604511059
100.373491169749
100.373401704439
100.373302611484
100.372910564613
100.372356049218
100.372210995296
100.372426898921
100.37264433577
100.373062652369
100.372816345021
100.3725449928
100.372362175573
100.372583907094
100.372600371181
100.372880455408
100.37298752736
100.3728302085
100.372847399581
100.37276554639
100.372747848694
100.372634805048
100.372677730148
100.372769569556
100.372741015475
100.372730097741
100.372784410449
100.372830577104
100.372961880996
100.372963957265
100.3730457678
100.373099869236
100.373111155393
100.373196065916
100.373268222974
100.373557650807
100.373673404655
100.373799293536
100.373879281409
100.373828248875
100.373979814496
100.373547039395
100.373365751289
100.37298095937
100.373034297402
100.373291956386
100.373370879239
100.373673979293
100.373854197056
100.374043202062
100.374078943312
100.374072306429
100.373868791458
100.373581023037
100.373485947797
100.373625484624
100.373699815004
100.373866466727
100.373742540193
100.373665803606
100.373415604574
100.37297118858
100.372713316615
100.372938906301
100.37294090611
100.373150513214
100.37318157284
100.373252604263
100.373386761162
100.373497791995
100.373860847487
100.374065720351
100.374226653155
100.374265198471
100.374261310331
100.373971609966
100.373657220076
100.373113577107
100.372526637562
100.371969503193
100.372227961539
100.372460736365
100.372513662968
100.372387462041
100.371552844422
100.37084403584
100.370176021659
100.370457351251
100.370837802621
100.370752856339
100.370690507842
100.371043009605
100.371393024151
100.371470380595
100.371463797625
100.371137590591
100.371522631055
100.371177695393
100.371938191143
100.372582821212
100.372929826133
100.372895342462
100.372888210265
100.372905383667
100.372951707678
100.373041535495
100.373103032526
100.373100846294
100.373168985501
100.373233073735
100.373300350091
100.373293508617
100.37346347297
100.373634936675
100.374007559623
100.374221405006
100.374362793191
100.374339820323
100.374279605634
100.374039098372
100.373695415948
100.373187871049
100.372594500884
100.371936025491
100.371100114537
100.37067078764
100.370544146251
100.370398396863
100.370307625549
100.369462350557
100.369092742214
100.368916534184
100.368771526951
100.368749623557
100.369241871725
100.36932190127
100.368778574708
100.369146231152
100.369685318445
100.369745171857
100.369843539426
100.371168745519
100.372002717843
100.372576083618
100.372971322798
100.373028159774
100.372986383375
100.373001467992
100.373054951457
100.373144328651
100.37319283409
100.373250304371
100.373311138369
100.373337501171
100.373312287921
100.373523996544
100.373774843573
100.374145713362
100.374366269347
100.374546308811
100.374465695786
100.374428220367
100.374494757388
100.374603434913
100.37448369191
100.374278010986
100.373884794835
100.373451210508
100.373539418264
100.373945256446
100.37428699879
100.374501361544
100.37469523352
100.37461271374
100.374464842377
100.374110023781
100.37374419894
100.373751482532
100.373249005532
100.372681677475
100.37202752849
100.371208596868
100.370814732729
100.370416194437
100.370184710682
100.370133134015
100.369857997935
100.36957282388
100.369268196633
100.369595480683
100.369958746092
100.370228465694
100.369966463093
100.369597473102
100.369373646709
100.36892369797
100.368986606738
100.369190773213
100.368915592361
100.368325377063
100.368577852164
100.368640416781
100.368168238543
100.368244535362
100.367675998604
100.367243099793
100.366867059244
100.366657749827
100.367163820572
100.367546803896
100.367864047535
100.367394948362
100.367490623814
100.367738779096
100.367334871065
100.368093115805
100.366557252227
100.365028681244
100.36380161429
100.363703640825
100.364375844753
100.36543627318
100.367663215359
100.365062796915
100.364166915468
100.363338609649
100.359421047164
100.356352785283
100.361522054448
100.360542297931
100.360686143461
100.358204593231
100.359763474439
100.35650805984
100.358660028317
100.360522946236
100.360742149146
100.361978352559
100.363614791596
100.364778056564
100.366130313073
100.367112943355
100.366454848614
100.368439978287
100.365439484404
100.372857885346
100.37183473319
100.37041319917
100.368748639704
100.366783952646
100.365962516697
100.369005210081
100.370684863025
100.365495179773
100.362636936194
100.361837829287
100.35031950073
100.35437354447
100.351062343207
100.354940192728
100.356634084819
100.368533766654
100.370385317491
100.372208689346
100.372417938205
100.372359306273
100.372450818271
100.372449597496
100.372457824219
100.37246422575
100.372473558675
100.372547853866
100.372485335796
100.372695138293
100.372717170238
100.37269874598
100.372638092606
100.372603600029
100.372702847682
100.372613235659
100.372666818111
100.372615661848
100.372421032687
100.372487374908
100.372463505972
100.372447388555
100.372433990794
100.372435321237
100.372402557334
100.37229619271
100.372333203664
100.372028498379
100.37157422698
100.37221041511
100.372342845541
100.372325210006
100.372378617554
100.372370015005
100.372373574013
100.37237896708
100.372397699084
100.372395457084
100.372418609074
100.372485377582
100.372483701311
100.372537023781
100.372574946705
100.372540267126
100.372485620568
100.372463488639
100.372587966176
100.372210719849
100.372138020047
100.372320589317
100.372206343405
100.372433857146
100.372326184756
100.372378848495
100.372412612001
100.372328686288
100.372355408825
100.372407123535
100.372409261585
100.372381381917
100.372348696904
100.372384560784
100.372347428423
100.372365096375
100.37230412962
100.372315514564
100.372155812875
100.371661812428
100.372314301953
100.372321882352
100.372336286898
100.372371974709
100.37235545917
100.372374276172
100.372378616408
100.37237038542
100.372336418543
100.372314121523
100.372388891
100.372300424903
100.372187120785
100.371888019415
100.371439221232
100.371990045848
100.371817461033
100.372349640463
100.372096285435
100.372309838387
100.372383019167
100.372331196834
100.372372111929
100.372404920195
100.372358461816
100.372333442762
100.372326328922
100.372351540976
100.372333512197
100.37232714826
100.372249697109
100.372355046458
100.371400249978
100.370004385765
100.371889386773
100.372393369804
100.372302887635
100.372352139959
100.372369089738
100.372346049403
100.372348046327
100.372382828598
100.372391086502
100.372366384048
100.37232083246
100.37236295109
100.372286005545
100.372065805828
100.372390035504
100.372380406388
100.372356246268
100.372342689006
100.372368378914
100.3722499148
100.372163150266
100.371631160378
100.372303227883
100.372132833768
100.372399410043
100.37232439787
100.372386340645
100.372354811606
100.372399573855
100.372373860806
100.372425241204
100.372353262545
100.372347570748
100.372365273921
100.372348314567
100.372290863313
100.37234990071
100.371954519231
100.370743005202
100.372231433981
100.372340178984
100.372319089046
100.372367235046
100.372348275618
100.372346815677
100.372405675231
100.372414336291
100.372361372765
100.372337840624
100.372369867208
100.37231084727
100.372312622336
100.372261955355
100.372196404509
100.370778152612
100.369601581719
100.371675043143
100.372344787122
100.372297228888
100.372335304086
100.37236314003
100.37237658869
100.372349254465
100.372439800214
100.372383671533
100.372392459083
100.372422628459
100.372363006554
100.372301523115
100.371849579927
100.371371258664
100.371941157488
100.372375784227
100.372313914146
100.372527135304
100.372461514728
100.372457329964
100.372420047482
100.372450347065
100.372476110209
100.372389620599
100.372378114429
100.372384164492
100.37235400402
100.372323340684
100.372387663586
100.371901415895
100.370780634816
100.37234772911
100.372428751131
100.372409562373
100.372421328255
100.372428784574
100.372387725345
100.372503428129
100.372436862573
100.372469014714
100.372558479526
100.372572915637
100.37250542037
100.372139233073
100.372598465263
100.372637674253
100.372763822728
100.372719579442
100.372635186681
100.372540176824
100.372533830639
100.372564479633
100.37244771006
100.372422988717
100.37245448562
100.372405376588
100.372428786777
100.372401159929
100.372427936195
100.371095092154
100.370246503613
100.37226232444
100.37260505642
100.372480096496
100.372480047138
100.372521769498
100.372506300547
100.372472746631
100.372620846455
100.372560741145
100.372623103016
100.372763380894
100.372841897456
100.372848705659
100.372458372691
100.372796423534
100.37284194937
100.372846896424
100.372894479622
100.372831271681
100.372653946601
100.37265216437
100.372728993552
100.372676465138
100.372598033492
100.372550333859
100.372499278
100.372581128118
100.37255932061
100.37255989604
100.372585061833
100.37260617537
100.372244492001
100.370748089779
100.370322155178
100.37213211779
100.372703781807
100.372683560737
100.372662436658
100.372634174943
100.372622621794
100.372637628556
100.372625902017
100.372784693484
100.372718412766
100.372757267211
100.372870942877
100.372921413842
100.372869000793
100.372495715763
100.372745972801
100.372866018379
100.372842300886
100.372734054458
100.372804118714
100.372889029099
100.372913774899
100.372848921625
100.372446095468
100.372666771423
100.372728618298
100.37276374169
100.372880811671
100.372888572333
100.372740109167
100.37276610361
100.372731614525
100.372704951843
100.372823949166
100.372672385649
100.372649019122
100.372748783904
100.372716832723
100.37273805829
100.372755956464
100.372836397484
100.372507377742
100.372109295386
100.372887836959
100.372849937878
100.372824100624
100.372791715013
100.372801103948
100.372767775015
100.372760679831
100.372803119759
100.372815493924
100.372799386135
100.372858162116
100.372835189086
100.372564637946
100.37271787521
100.372805623349
100.372771604401
100.372807974735
100.372800284193
100.372877556033
100.372776711145
100.372820962803
100.37283017111
100.372859132409
100.372911773754
100.372880044609
100.373085056829
100.372450512439
100.372596756928
100.373053664169
100.372954449635
100.372935428732
100.372906805781
100.372876774439
100.372871782627
100.372828653
100.37289148127
100.372813792118
100.372833819853
100.372863303606
100.372777975453
100.372616526335
100.372195161777
100.372543240067
100.372721265831
100.372807062779
100.372777265288
100.372852517509
100.37286051145
100.37275940886
100.372658026083
100.372220499978
100.372538716012
100.372718102991
100.372818570078
100.372803785956
100.372836397241
100.372863482207
100.372910804362
100.372856370924
100.37288071404
100.372902356036
100.372916355278
100.372936992683
100.373006256081
100.372929815144
100.373179561601
100.372656666741
100.373175041386
100.373133016714
100.373081545513
100.373024750481
100.372995117598
100.372962770896
100.37294430008
100.372920132263
100.372948954852
100.372870037288
100.372884699958
100.372915850235
100.372827330998
100.372741936748
100.372313258911
100.372604976935
100.372765179823
100.372834003113
100.372848264587
100.372876704793
100.372849468423
100.372819331885
100.372853751499
100.372604173824
100.372295263191
100.372697818003
100.372872608898
100.372919866112
100.372904757131
100.372999745381
100.372954178218
100.372873204683
100.372904231135
100.372922727705
100.372940844994
100.372938915893
100.372915366992
100.372957579572
100.372992265845
100.373044512576
100.373029297864
100.373097200602
100.373022475502
100.373237429035
100.372769244382
100.373408568812
100.373182084979
100.373266098205
100.373178268205
100.37314419366
100.373130845843
100.373060521176
100.373004477331
100.372992268527
100.372989202708
100.37291621351
100.372966762793
100.373053068019
100.373135885024
100.373053329183
100.373003846416
100.373130304516
100.373226594564
100.373139091929
100.373166524508
100.373155429594
100.373332689919
100.373482445696
100.373479377533
100.373553158241
100.373427813326
100.373172916452
100.373114637256
100.373216865761
100.373124802515
100.373161149314
100.373089573991
100.373139963795
100.373214318797
100.373197869938
100.373290911981
100.373298412925
100.373464282634
100.373308289255
100.373585171736
100.373611513892
100.372261632379
100.372754603502
100.371053300555
100.371796172407
100.370068740951
100.370999268758
100.369391938818
100.368364120068
100.369040253061
100.368185463851
100.36914118477
100.368335420087
100.367818865614
100.368885933464
100.368418292248
100.368141960337
100.369664705344
100.369604564181
100.369696087151
100.371442491037
100.371566707822
100.372436301159
100.372437546804
100.372529101756
100.372533305666
100.372594254932
100.372576726101
100.372625651785
100.372640412177
100.372694152575
100.372669517855
100.372787053725
100.372766882778
100.372796618428
100.372832895485
100.372768058364
100.372650607557
100.372534356244
100.372737239325
100.372735636441
100.372827656079
100.372585607495
100.372492739401
100.372695951002
100.372530265798
100.372196643927
100.371802832463
100.371809030204
100.372079503359
100.372117748812
100.372572915648
100.372416571908
100.372179106605
100.371730577932
100.371105319717
100.370380190699
100.370923923828
100.371137739715
100.37098637659
100.371521913846
100.371580256744
100.371699408224
100.371451384192
100.371624270896
100.372012725171
100.372105703614
100.372224660416
100.372263046567
100.372388936726
100.372403476549
100.372355304478
100.372374808221
100.372409111929
100.372443130577
100.372476905454
100.372483118768
100.372482846213
100.372536807436
100.372527507387
100.372533024427
100.372535475088
100.372583832816
100.372631268884
100.372686901726
100.372706139341
100.372760653245
100.372771496949
100.372919928928
100.372939659992
100.372851121567
100.372859634798
100.372628260718
100.372669187571
100.372658424903
100.372682531555
100.372660543594
100.37259331162
100.372843736885
100.372838690012
100.37287644733
100.372924553233
100.37297469707
100.373038472222
100.373103717878
100.373250144011
100.373313013545
100.373387395284
100.37344914265
100.373576512015
100.373658741704
100.373828173402
100.374163587595
100.374445545012
100.374650927316
100.374821081497
100.374714446668
100.374571856679
100.374230202646
100.373786593053
100.373406577368
100.373597770439
100.373163756853
100.37271700556
100.372120113677
100.371311339415
100.370955864457
100.370572864195
100.370372205419
100.370350731762
100.370205214351
100.370556379457
100.370291227918
100.369914940465
100.369540722614
100.369387587587