/*--------------------------------*- C++ -*----------------------------------*\
| =========                 |                                                 |
| \\      /  F ield         | OpenFOAM: The Open Source CFD Toolbox           |
|  \\    /   O peration     | Version:  v1612+                                |
|   \\  /    A nd           | Web:      www.OpenFOAM.com                      |
|    \\/     M anipulation  |                                                 |
\*---------------------------------------------------------------------------*/
FoamFile
{
    version     2.0;
    format      ascii;
    class       volScalarField;
    location    "0";
    object      p;
}
// * * * * * * * * * * * * * * * * * * * * * * * * * * * * * * * * * * * * * //

dimensions      [0 2 -2 0 0 0 0];

internalField   nonuniform List<scalar> 
81489
(
99.5541768502427
99.5469846772608
99.5275565107543
99.4974581446027
99.5052967487902
99.5161694029292
99.535946734654
99.5469044845679
99.5472192642556
99.5361787995778
99.5165938137755
99.5058537471921
99.4997355021008
99.4995614182352
99.5052438232293
99.5155911830933
99.5353094055975
99.5463708967759
99.5463601078089
99.5353125615273
99.5155780373226
99.5052083365141
99.4995084772391
99.4996573512824
99.5057907906419
99.5165421776468
99.5361338496937
99.5471821779534
99.5468650119712
99.5359046898065
99.5161241707293
99.5052380203403
99.4991496637378
99.4989010673436
99.5045899026216
99.5149719807028
99.5347336462852
99.5457350280689
99.5457451486778
99.5347304251775
99.5149898416346
99.5046313796428
99.4989545244507
99.4992235085186
99.4952874572782
99.4948328362036
99.4968850041594
99.5040245182083
99.5381129807984
99.5500867730607
99.5501119494011
99.5381051416193
99.5039776675156
99.4968404739229
99.4947583699322
99.4952359694692
99.497390773316
99.5053810862304
99.5393463660718
99.5512595946453
99.5515435945155
99.5396875732173
99.5061824230457
99.4980636113892
99.4960156302572
99.4954138233381
99.497466159969
99.50457573042
99.5386870930699
99.5507360623554
99.5507128429734
99.538693877031
99.5046172321648
99.4975018658117
99.4954825179911
99.49606748171
99.4981324279618
99.506239083105
99.5397402687288
99.5515894555658
99.5513094378181
99.5393991709221
99.5054425345055
99.5310853870609
99.5462845016479
99.546317597729
99.5407432542718
99.5493741846254
99.5496016017009
99.5314860833278
99.5268802029907
99.5299052303921
99.5450748086065
99.5512187571898
99.5512103069934
99.5450341232837
99.5298181253979
99.5267786187214
99.5314020660514
99.5316738934066
99.527501336247
99.5310249166171
99.5462234272394
99.5521722781441
99.5523090557127
99.5466195293431
99.5316608308377
99.5280829144816
99.5323210971963
99.5320543309899
99.527435597674
99.5304503156704
99.5456391424272
99.5518226749511
99.5518291411584
99.5456745874464
99.530527472192
99.5275241436878
99.5321330135933
99.532387795663
99.5281424074732
99.531721035395
99.5466841804114
99.5523777571142
99.5522376469832
99.5465101763462
99.5466262164481
99.5408335098596
99.5393507896237
99.5392970719381
99.5404708765512
99.5406927472698
99.539453983744
99.5408175157152
99.5455787334636
99.5460304267653
99.5459773691289
99.5455171421601
99.5459216355225
99.5495945453854
99.5493253295529
99.5469296037299
99.5462589545519
99.5464442097289
99.5465547053939
99.546640787491
99.5472719303452
99.5496478243317
99.5499995794178
99.5412253730984
99.5412277401663
99.5500103906547
99.5496947812762
99.540622965779
99.5421957310499
99.540501928879
99.5404835484747
99.5421604823296
99.5420867685843
99.5404086833538
99.5404120708979
99.5394573595197
99.5408168487473
99.5422841665605
99.5368781394074
99.5404257945214
99.5471297202591
99.5466792949553
99.546907452517
99.5420800399163
99.540709511127
99.540464575873
99.539282494863
99.5406960731827
99.5407900416472
99.5393366431491
99.5406176891066
99.5409118135455
99.539664484337
99.5396602459452
99.5408962854116
99.54216059853
99.5469313857277
99.546966229026
99.5467671237641
99.5467750703177
99.5469735023329
99.54691916679
99.5466800303837
99.5525256623706
99.5525265795866
99.5523557616745
99.5523840085689
99.5469657141377
99.5421562063609
99.5404778578745
99.5404963385636
99.5421926258558
99.5421540142942
99.5405225049637
99.54051837969
99.5467216549536
99.5525328031018
99.5523537162198
99.5523729199539
99.5525511072695
99.5525585637389
99.552378840725
99.5523540031747
99.558256783574
99.5584070541045
99.5584080593804
99.5582654879103
99.5582837017099
99.5584242826045
99.5525640017445
99.5467678736977
99.5467611940932
99.5469590271907
99.5469208223536
99.5467200262539
99.5525335048087
99.5583981781708
99.5583960435863
99.5582472300849
99.5582603019287
99.5584027159791
99.5584085340438
99.5582698777818
99.5643830712764
99.5643759483104
99.5644596605316
99.5644625514223
99.5643870436786
99.5643954023643
99.5644790992942
99.5644725485088
99.5584185139799
99.5525572354522
99.5523778600354
99.5523570255565
99.5582573654564
99.564369254236
99.5644447476975
99.5644418050491
99.564362583695
99.564370849951
99.5644596410393
99.5644639750173
99.5705568572819
99.5705208207915
99.5705143450147
99.5705438865177
99.5705478745862
99.5705227029473
99.5705280072561
99.5705635555951
99.5705560970983
99.5705114044936
99.5643821043903
99.5582734260684
99.5585737000726
99.5644634050024
99.570413573932
99.5704991578479
99.5705254698917
99.5705236390893
99.5705000160617
99.5705094424444
99.5705535963396
99.576609647235
99.5766139690565
99.5766030621793
99.5765980084545
99.5765953859423
99.5765988098407
99.5765997956461
99.5766057114173
99.5766138039421
99.5766076389444
99.5765870355552
99.5765767353608
99.5765760873523
99.5765756716262
99.5765806000832
99.5765905867624
99.5826655192577
99.5826438088064
99.5826511689756
99.5826815158797
99.5826738004821
99.5826408900595
99.5826404099021
99.5826739738289
99.5826787469679
99.5826514788871
99.5826444482052
99.5826654712846
99.5826554424085
99.5826191482406
99.5826200420958
99.5826543238054
99.5890066297508
99.5890179682139
99.5888423581124
99.5888457537179
99.5890278350967
99.5890278865042
99.5888523808791
99.5888462660033
99.5890266099256
99.5890262671397
99.5888420759763
99.5888361941339
99.5890097715256
99.5890085907536
99.5888231185228
99.5888308584483
99.5957784107338
99.5964273507846
99.5964245959714
99.5957670469256
99.5957587773218
99.5964180238481
99.5964320915384
99.5957919196385
99.5957941745739
99.5964275112168
99.5964152485533
99.5957606700976
99.5957533398716
99.5963810519861
99.5963766894307
99.5957530426136
99.6033039957896
99.6033363203524
99.6046474274618
99.6046312005252
99.6033278908289
99.6033212503597
99.6046223167196
99.6046286977287
99.6033302789564
99.6033299756873
99.604594702698
99.6045616296251
99.6032541019577
99.6032524173603
99.6045492139925
99.6045531237774
99.6196776902231
99.6188415675571
99.6188559520195
99.6197153023075
99.6196315567639
99.6186866089376
99.6186781797428
99.6196294605933
99.61969068615
99.6188336245717
99.6188025546941
99.6196183322445
99.6194987083782
99.6185029987541
99.6185093680804
99.6195550340642
99.6634606821351
99.6637357119149
99.6567099971855
99.6566326925703
99.6636560784526
99.6634761522081
99.6561947287146
99.6561839121795
99.6634684740024
99.6636540008208
99.6566198528567
99.6565613155095
99.6635756365953
99.6633687146477
99.6560788731101
99.656102829632
99.7366097260903
99.7930042854885
99.7563599776198
99.7563022702887
99.7925241588531
99.7365266201849
99.7364717281626
99.7926004077711
99.7562451610243
99.7563077930801
99.7929380748418
99.8257208255329
99.8257238287243
99.7929016013735
99.7364292743301
99.7364721360506
99.8011081136633
99.8996121161695
99.9031346389213
99.9030807455567
99.8735909224511
99.856514735093
99.8562452559602
99.7561809632032
99.7924726624499
99.8250864919566
99.736359816466
99.736336959126
99.7924774116904
99.756157321996
99.7562462509224
99.7929397752627
99.7365226707447
99.8257475127143
99.8257597935016
99.9029674580209
99.8735158695765
99.8565374325892
99.8562492640986
99.8731057914937
99.9028580124355
99.9028636883727
99.8733016579649
99.8563486001153
99.8565980241049
99.8736024601105
99.9552831275864
100.029912567395
99.9969932109352
99.9969332703622
100.029929500526
100.032780737903
99.9552648088741
100.021840847479
100.082108715701
100.077238163309
100.07311151536
100.073205367418
100.077432052535
100.03029979599
99.9551561909501
100.032929127506
100.021989080264
100.0822900928
100.135835555967
100.170962199779
100.193881675562
100.209774168628
100.221188572209
100.229593301267
100.235790902988
100.240365680836
100.24368399579
100.246023457831
100.247655909445
100.248829987937
100.249733591858
100.250487157119
100.251158424156
100.251780126166
100.252359369914
100.252887037228
100.25334718922
100.253719108815
100.253980575567
100.254103900266
100.254057966576
100.253810549309
100.253698361188
100.253563158222
100.253413184992
100.253218514052
100.253088341183
100.253154447734
100.253422502878
100.253779986781
100.254163738771
100.254530549206
100.254857702673
100.255134887832
100.255357348229
100.255522029747
100.255628092145
100.255681481482
100.255698727277
100.25572895094
100.255771565714
100.255827488541
100.255898664874
100.25598655969
100.256091970942
100.25621488873
100.256354458161
100.256509035339
100.256676294465
100.256853268896
100.257036065089
100.257219464206
100.257396074102
100.257554422806
100.257676675614
100.257733300492
100.257679645688
100.257461586782
100.257049570452
100.256503720493
100.256046470799
100.256015071501
100.256321815581
100.256503984539
100.256548082102
100.256542048491
100.256514079875
100.256478056314
100.256451224221
100.256410802984
100.256362322633
100.256296000861
100.256204916195
100.256061411552
100.256103130868
100.256179259733
100.256261277568
100.256291560177
100.256241458757
100.256324559818
100.256379114978
100.256420905118
100.256459300108
100.256485175014
100.25651592891
100.256541671373
100.256548252421
100.256511353203
100.256345229886
100.25610382801
100.256384289713
100.256524781753
100.256548552409
100.256540128379
100.256517601789
100.256491970263
100.256470456397
100.256437246701
100.256400642249
100.256355285511
100.256382557553
100.256302711227
100.256372384398
100.25643807405
100.256421365268
100.256445943541
100.25642271318
100.25645336568
100.256478669395
100.25649667145
100.2565189888
100.256538618972
100.256550385557
100.256540950689
100.256414346641
100.25622814884
100.256446055247
100.256548525741
100.256550959805
100.256535832954
100.256519998579
100.256499508079
100.256484189826
100.256464545459
100.256477199221
100.256488283874
100.256468205042
100.256433455389
100.256360343312
100.256294987928
100.256192593458
100.256286366183
100.25636319529
100.256363029185
100.256413166144
100.256458846296
100.256485126931
100.256502666735
100.256519829323
100.25650587838
100.256524555212
100.256539697376
100.25655937917
100.256545698289
100.256497081613
100.256451760449
100.256310501187
100.256279098933
100.256394366246
100.256514528918
100.256551858679
100.256572178108
100.256571278747
100.256547424973
100.256535948303
100.25653974822
100.25655403272
100.256545000894
100.256526633228
100.256504885889
100.256481418216
100.256447806864
100.256390128706
100.256460449045
100.256499616849
100.256491345041
100.256511771952
100.256530986549
100.256547448704
100.256559865907
100.256573769377
100.256594570205
100.256573400897
100.256568054639
100.256591036977
100.256597491158
100.256591672471
100.256567409136
100.256467151641
100.256454587746
100.256566102351
100.25663084891
100.256633053106
100.256631986473
100.256616379701
100.256643745306
100.256622340351
100.256599292036
100.25658103468
100.256563123851
100.256552528155
100.256539973997
100.25652529787
100.256566566223
100.256575618427
100.256589261856
100.256618486753
100.256604294753
100.256584185808
100.256550603928
100.256535973487
100.256513442556
100.256558283387
100.256575786523
100.256632661911
100.256671974775
100.256647609206
100.256597699882
100.256621647916
100.256639597278
100.256652660928
100.256666241512
100.256630505762
100.256651918536
100.256671273948
100.256699765996
100.256663958924
100.256677336998
100.256691269171
100.256654828331
100.256672120768
100.256741567801
100.256754144431
100.256723300731
100.25676121493
100.256736034238
100.256699054363
100.256684163523
100.256698117571
100.256730355954
100.256712853584
100.256691311924
100.256679116703
100.256664379013
100.256701628089
100.256701970992
100.256737092904
100.256744097833
100.256712899336
100.256722595743
100.256741849558
100.256762081928
100.256784473951
100.256756493143
100.256740601001
100.256777049788
100.256793640756
100.256838147587
100.256802133401
100.256783607614
100.256775763729
100.256818062001
100.256868886628
100.256850217789
100.256831873923
100.256803726085
100.25682687864
100.256811216997
100.256792318453
100.256779564229
100.25677024796
100.25676192019
100.256740725851
100.256727514131
100.256717659092
100.256753241926
100.256779964173
100.256814529443
100.256783888651
100.256794357582
100.256803391875
100.256819199145
100.256840300138
100.256826052029
100.256855363947
100.256881029017
100.256865740539
100.256861035044
100.256885984648
100.256916601153
100.256934729835
100.256896367744
100.256852786781
100.256877643407
100.25690556744
100.256946512649
100.256967933372
100.256943869357
100.256919643465
100.256902530537
100.256922460887
100.256906055476
100.25688566807
100.256872947866
100.256860135211
100.256837797928
100.256827791521
100.256837052619
100.256860927688
100.256868072209
100.25689147885
100.25688318718
100.256871924882
100.256873713902
100.256908997437
100.256932628195
100.25690625348
100.256911650729
100.25692042526
100.256929398034
100.256899363144
100.256912938225
100.256932589163
100.256955709517
100.256947771693
100.256945407628
100.256968228785
100.256997814756
100.256983209079
100.256954764169
100.257076900685
100.257083188825
100.257132638497
100.25691812903
100.256905692716
100.256779943036
100.256669561868
100.256608718208
100.256236188805
100.256131811571
100.256550511096
100.257061829401
100.257452020625
100.257660813282
100.257715072421
100.257661946096
100.257543131283
100.257387923603
100.25721421759
100.257033484968
100.256853084763
100.256678196452
100.256512699537
100.25635957145
100.25622116051
100.25609915469
100.255994474339
100.255907208944
100.255836646015
100.255781407575
100.255739661075
100.255710268539
100.255691875923
100.255679481126
100.255676796659
100.255696786087
100.255727485979
100.255770586094
100.255826842415
100.255898272121
100.255986382656
100.256092014643
100.25621520172
100.256355127878
100.256510179898
100.256678052561
100.256855795942
100.257039522452
100.257224011026
100.257401877651
100.257561687233
100.2576856462
100.257744066003
100.25769066487
100.257467338261
100.257043061226
100.256478162646
100.25599836323
100.255966722028
100.256286793839
100.256494890839
100.256561990569
100.256555760944
100.256504485128
100.256471787945
100.256440552471
100.256396246968
100.256336880676
100.256259715791
100.256157473911
100.255988269966
100.256020578926
100.255885467362
100.255737709654
100.255404933918
100.255506338184
100.255621083268
100.255722248102
100.255884198943
100.256035857631
100.256061184732
100.255948432399
100.255876177094
100.255802772144
100.255934402898
100.255989771507
100.256046908731
100.256164828216
100.256242309728
100.256287838967
100.256224373168
100.256085024303
100.256015172063
100.255914463094
100.2557008883
100.255914636857
100.256065062908
100.256067811746
100.256115692004
100.256187221012
100.256098620864
100.256226522152
100.256344317231
100.256410006989
100.256394294602
100.256314917608
100.256359619482
100.256408473096
100.256473875813
100.256430469101
100.256416173701
100.256400480649
100.256350583015
100.256453935164
100.256508417802
100.256480378363
100.256473528858
100.256554148812
100.256530134336
100.256606814169
100.256638407039
100.25661331669
100.256608211508
100.256568495241
100.256546668901
100.256551897698
100.25659634762
100.25663916936
100.256665877106
100.256696139659
100.256715943321
100.256677270992
100.256643272119
100.256611544965
100.25657517379
100.256553266547
100.256523011291
100.256515698505
100.256507262544
100.256493964636
100.256479536603
100.256471457704
100.256462267712
100.256498593415
100.256552193446
100.256545167386
100.256514354799
100.256475340223
100.256446870309
100.25640118201
100.256345609626
100.256273034618
100.256176753893
100.256101619452
100.256231040462
100.256336224338
100.256409490487
100.256402403742
100.256396796146
100.256390726829
100.256336426007
100.256255408747
100.256147281845
100.255972236284
100.255824932723
100.255651632704
100.255273347779
100.255312027716
100.255094127105
100.254799211697
100.254063883737
100.254292065678
100.254662569938
100.254918361275
100.255200048247
100.255316991764
100.254877306036
100.255152845395
100.25537267228
100.255565156072
100.255460563169
100.255379764145
100.255106454026
100.255377966163
100.255436220803
100.255725697733
100.255895140522
100.256084491641
100.256181832413
100.256148803704
100.255998515095
100.255770956059
100.255592858397
100.255504145575
100.255570431396
100.255521644842
100.25595434414
100.256300922841
100.256361354613
100.256404707839
100.256380297597
100.256342327184
100.256322859744
100.256298048685
100.256298137148
100.25628757075
100.256280460576
100.256280075933
100.256493536252
100.256564013985
100.256557601313
100.256501913359
100.256474247675
100.256434051194
100.256436883288
100.256393692666
100.256339679054
100.256257723335
100.256149849861
100.255976957338
100.255825398687
100.255657548751
100.255276287003
100.255020072744
100.25473917827
100.253968683854
100.253954133932
100.253589295927
100.252537397973
100.252954897151
100.253395136371
100.253803003806
100.254222336797
100.254641060655
100.254469154059
100.25430097911
100.254908071705
100.255343892179
100.25571009587
100.255846227035
100.255719243665
100.255408549537
100.254887361936
100.254845751635
100.254922736641
100.255005356317
100.255021449492
100.254671374208
100.255085073361
100.255734893364
100.256219330184
100.256294252786
100.256269342673
100.25614375842
100.256243763384
100.256228364943
100.256091504153
100.256221067374
100.256222888858
100.256282342566
100.256281922053
100.256495892981
100.256566639877
100.256559769138
100.256503284514
100.256475787187
100.256460758939
100.256448056941
100.256403332674
100.256346366362
100.25626827585
100.256164545742
100.256000575562
100.255855193978
100.255684523779
100.255320104226
100.25507823886
100.254806262824
100.254100316854
100.253781943019
100.252941011249
100.252535996767
100.251382533643
100.249231574397
100.236835159528
100.236768274297
100.241683795077
100.248706017588
100.250690427083
100.249245315351
100.251387232684
100.252088241334
100.252954402954
100.2505011427
100.252445739632
100.253407623792
100.252543593686
100.251929057411
100.248535864552
100.252333164454
100.25414245559
100.253562257001
100.253846489107
100.254785523792
100.254726958
100.255602596341
100.25593152442
100.256157916003
100.256221961401
100.256030208424
100.255684304474
100.255368907626
100.255281142792
100.25515360544
100.255017233528
100.254325745541
100.254283519969
100.252239569079
100.253643805632
100.254240674579
100.25577694646
100.255730740682
100.255066854324
100.253427557871
100.253340919851
100.255554917276
100.253809997487
100.25303310333
100.255173008773
100.255343522948
100.255704562537
100.255937082056
100.254943018554
100.255193660629
100.254989911629
100.255545507975
100.255160280186
100.253902426655
100.254251925089
100.253898328884
100.252342159559
100.250387918114
100.250968058747
100.253910635846
100.2543811503
100.254585271024
100.255909052503
100.255390017397
100.254703043839
100.254588904365
100.259885835066
100.257448148645
100.256425079321
100.256083731364
100.255896461487
100.25558161013
100.255597380146
100.256485726132
100.255991530138
100.255801634125
100.25510006794
100.255730462553
100.256135547006
100.256426502386
100.256065193274
100.255981261885
100.255341607059
100.255379429872
100.255998333425
100.255912272041
100.256376254387
100.256599296671
100.256674179093
100.256569993607
100.256469499472
100.256409111554
100.256330677627
100.256267253527
100.256175222904
100.25609482851
100.256049253505
100.256052123141
100.255969708879
100.256293075353
100.256502081678
100.256569607573
100.256562772562
100.256510617028
100.256479401214
100.256488392425
100.256458032277
100.256410830976
100.256358091884
100.256287983831
100.256190804552
100.256036569209
100.255903533383
100.255737931536
100.255400198285
100.25519847103
100.254922454608
100.25425724662
100.253974007608
100.253416419333
100.252923683829
100.250439282871
100.248667933765
100.241721305949
100.227548584386
100.197473362415
100.182064744682
100.189552175568
100.191010658224
100.188498499002
100.187939271949
100.1899791951
100.188248657986
100.188257633223
100.191811828365
100.191031696747
100.191250689626
100.194775695693
100.194164039845
100.194452330828
100.197909213463
100.197591667358
100.197936713264
100.201144181407
100.201220195405
100.203430372785
100.207623900712
100.201911624863
100.200367840815
100.201564857457
100.200926043531
100.200754663778
100.200698107691
100.200289293136
100.192724985614
100.199175145139
100.199084827942
100.199709866789
100.195000639458
100.197155143675
100.196217894813
100.197977538817
100.199588974418
100.197042824245
100.200566082229
100.199925630121
100.203095103784
100.203250935483
100.202746617613
100.199501884367
100.202231443822
100.203596565627
100.203538298628
100.202206811121
100.199422899164
100.202701233894
100.203245136377
100.203098784483
100.199926747996
100.20057046438
100.196997065672
100.199573389123
100.197979508299
100.196236027472
100.197183735389
100.195021383504
100.199716956508
100.199086168777
100.199191588467
100.192733782099
100.200234751806
100.200603699705
100.200742168655
100.200935682326
100.201587682016
100.200388809483
100.201923023594
100.20762953965
100.200885159058
100.200374264123
100.20189631397
100.203810941961
100.200826197681
100.201768035153
100.205322271361
100.203865863885
100.202750862187
100.211406037033
100.211424500432
100.199932626611
100.199611177858
100.187768598133
100.199119325676
100.208468844852
100.201638708398
100.21452945067
100.211784482668
100.21361949594
100.206922258303
100.201242977867
100.200785100229
100.20215251298
100.201921881679
100.199724340235
100.193512501111
100.20125906921
100.200318636629
100.200679887898
100.196978073923
100.192032078044
100.194067631448
100.196705074076
100.199456000824
100.186812468931
100.19652693002
100.185802149581
100.200659442666
100.202075758857
100.199233839121
100.203249118722
100.196410372004
100.163517545937
100.187079921531
100.185577458974
100.185639210123
100.18715452022
100.163697796876
100.196440272901
100.203252934212
100.19924142607
100.202085478756
100.200662538138
100.202676831327
100.201847120508
100.201843950463
100.202674601431
100.202285807659
100.202503547276
100.202504494423
100.202287646353
100.200802679735
100.186846425802
100.196537257182
100.1858140571
100.210527984655
100.19921720542
100.20808169435
100.205450881158
100.208906230077
100.208726668197
100.212008947886
100.217599289203
100.213193307215
100.214991298006
100.220919708884
100.237279222766
100.237305020653
100.220953649389
100.214956443937
100.213176426124
100.217608187761
100.212017826307
100.208715346715
100.208878545467
100.205419057171
100.205775988425
100.21532000452
100.209368645326
100.206324723049
100.198864747652
100.188561209901
100.183163107958
100.198499020981
100.202500648444
100.202262804895
100.191430694238
100.18969281932
100.202802993761
100.206876666956
100.204529830254
100.203307190876
100.206874816286
100.203438730996
100.201224044696
100.20114473851
100.197937063217
100.197589705866
100.197908994333
100.19444783011
100.194157602713
100.194775299263
100.191235064472
100.191013926249
100.191814342658
100.188249128534
100.188227342502
100.189983715995
100.187977898401
100.188575313559
100.191239241786
100.191360102848
100.191311375035
100.191296334229
100.1912252659
100.191359038572
100.190350844871
100.188735153753
100.19040644543
100.190434135444
100.188788002501
100.184504781273
100.184346756984
100.196861909547
100.221272984935
100.221007055509
100.196797752096
100.197372067225
100.182256413082
100.189542070682
100.191013240746
100.189849739291
100.189102916306
100.189365359943
100.189419682881
100.189726708386
100.190205018917
100.19065514197
100.191681466429
100.192513866075
100.193388958013
100.194592865791
100.195574794661
100.196537491644
100.197796841804
100.198775363552
100.199790524634
100.201180722378
100.202989935633
100.205420708695
100.20601337052
100.20643663717
100.207466003145
100.20714595178
100.206976951444
100.207249265993
100.204689459862
100.203990384021
100.202231654164
100.199543355524
100.197868648708
100.198322055892
100.196306470227
100.194555376972
100.195069608996
100.193168299538
100.19141934341
100.192377918495
100.190624549083
100.188233012746
100.189602136746
100.192155838381
100.188869749189
100.187520091351
100.18862887727
100.189098032284
100.188069295651
100.187821235183
100.186015323164
100.190707767792
100.184848679169
100.179776316135
100.191098124549
100.220517561382
100.241329040543
100.222172408949
100.18941305366
100.174710299068
100.182185413705
100.164299307605
100.173001616938
100.208224165574
100.236884405875
100.250408888417
100.254507249274
100.256124958321
100.256575030415
100.255853664259
100.254374732309
100.250697985268
100.242362617828
100.240516075133
100.246752173744
100.249760388186
100.251061501333
100.251725201688
100.253183793868
100.253489883438
100.25473946531
100.255855602377
100.255706799533
100.25560894005
100.255611395879
100.255714780579
100.256103807308
100.25602472525
100.256308258957
100.25651034573
100.256564140582
100.256558470422
100.256528458114
100.256532930637
100.256497676428
100.256469960088
100.256426312912
100.256377044372
100.25631290507
100.256225609034
100.256084088391
100.255962308002
100.255824192544
100.255524468251
100.255347822153
100.255098443862
100.254561558746
100.25420262392
100.253848002625
100.253482370862
100.252456571558
100.250941070652
100.249555744021
100.241402837049
100.220396518946
100.191180332698
100.179876028874
100.184912810741
100.190806450526
100.189885312494
100.188953753357
100.189221790566
100.189380319647
100.189787672362
100.190204980415
100.190643470747
100.191690200005
100.192523905445
100.193403003184
100.194607568577
100.195582467802
100.196538978572
100.197804265129
100.198779654052
100.199782447475
100.201170119293
100.202971611674
100.205397588328
100.206273083642
100.203257858376
100.201690007173
100.205259144331
100.203887564922
100.202806851491
100.203714425199
100.200733057387
100.200805953964
100.20030473534
100.201859615601
100.20241905868
100.201100047496
100.204484604889
100.205346972697
100.206700036776
100.205984383344
100.206401175968
100.207438901367
100.202784669035
100.18966306861
100.191410744824
100.202269673632
100.202476991732
100.198471724403
100.18313590283
100.188529932615
100.198840229288
100.206302968727
100.209340821274
100.215261424959
100.205814116287
100.214762656442
100.218161224908
100.210302748251
100.225693256481
100.225512870894
100.207202344769
100.209453783867
100.207762572569
100.207957829553
100.208438935336
100.212961376787
100.211888879551
100.213408602329
100.210223018468
100.212546174276
100.212220440581
100.215885810022
100.221630670578
100.22165117219
100.215896767403
100.212224065252
100.212579896356
100.213454756983
100.211947304103
100.21303432048
100.211340954161
100.209090061057
100.20709916806
100.208961104469
100.20972924472
100.212110239849
100.208496381468
100.208472084762
100.207797204876
100.204053943644
100.203159931698
100.200817420089
100.199906911533
100.197396046658
100.196918997211
100.197452472472
100.197050346401
100.194210329865
100.193785262093
100.194262627431
100.193808586601
100.190922288558
100.190688780541
100.191570867288
100.19065147484
100.188177550284
100.187971423359
100.191689566468
100.191806206051
100.190427512155
100.193212159412
100.19423956215
100.195783904087
100.193166730642
100.189058171797
100.187305913238
100.189949453733
100.1888843063
100.18835284723
100.180924169271
100.183367157364
100.186291540818
100.180834580794
100.187435653805
100.187080685733
100.188031567143
100.189006264861
100.18895413012
100.189923180126
100.188632827435
100.203444925496
100.227446676686
100.227335466571
100.243597530637
100.248107486901
100.250940767305
100.249573463812
100.245755378368
100.249225931173
100.251161356027
100.251975356628
100.251924998817
100.25270485358
100.249738447589
100.253468038091
100.254481220745
100.255141718428
100.255776298676
100.257418457462
100.257012352083
100.257476872822
100.258160435107
100.258568332763
100.257907674804
100.257618422677
100.258142645861
100.257785710797
100.256726790157
100.256509947657
100.255614071057
100.256963155791
100.257106315853
100.257258844729
100.257369123079
100.257436786746
100.257450789728
100.257432532419
100.257382391214
100.257472612867
100.257449365418
100.257526456301
100.257487806532
100.257474399684
100.257445012929
100.257340292761
100.257268492387
100.257350901828
100.257406587841
100.257417420555
100.257348783579
100.257261807689
100.257211404286
100.257245970747
100.257289691461
100.25724896919
100.257079636426
100.257044083381
100.256195731359
100.256676077034
100.257125772227
100.257276031273
100.25724579556
100.256872538988
100.256762635665
100.256254756301
100.25620083791
100.25555219373
100.256087584802
100.257194966273
100.257199349129
100.256881724484
100.256964183904
100.256667992042
100.256875647568
100.25696497996
100.25689507515
100.257067237706
100.257216584495
100.25717742358
100.257075985275
100.257073927032
100.257071957782
100.25701359313
100.25703916909
100.257048775613
100.257069822617
100.257164688717
100.257180946604
100.257033861253
100.257031007583
100.256926815006