/*--------------------------------*- C++ -*----------------------------------*\
| =========                 |                                                 |
| \\      /  F ield         | OpenFOAM: The Open Source CFD Toolbox           |
|  \\    /   O peration     | Version:  v1612+                                |
|   \\  /    A nd           | Web:      www.OpenFOAM.com                      |
|    \\/     M anipulation  |                                                 |
\*---------------------------------------------------------------------------*/
FoamFile
{
    version     2.0;
    format      ascii;
    class       volScalarField;
    location    "0.9";
    object      p;
}
// * * * * * * * * * * * * * * * * * * * * * * * * * * * * * * * * * * * * * //

dimensions      [0 2 -2 0 0 0 0];

internalField   nonuniform List<scalar> 
81489
(
99.9994281880921
100.004252362594
99.9974631528906
100.001731666343
100.007046807989
100.003720831365
100.003343209069
100.003395332586
100.003565460767
100.003181406318
100.003786560524
100.00687280119
100.010717129734
100.009551632745
100.007753735207
100.008758243252
100.005905741651
100.003522333692
100.003540401643
100.005919282887
100.008732035104
100.007709614785
100.009517175398
100.010671339472
100.006850455416
100.00375552754
100.003149996047
100.003539882002
100.003367501176
100.003311437323
100.003686697238
100.007026107627
100.010837176788
100.009684517188
100.007746048771
100.008757997821
100.005946331252
100.003586392252
100.003569590354
100.005933194058
100.008781657354
100.007793257986
100.009724046687
100.010876562826
100.004034873643
100.003323039787
99.9990459578921
99.9995571486682
100.000914005901
100.001333073562
100.001360782941
100.000936627424
99.9995379849609
99.999010710243
100.003292810524
100.004006202
100.001728843142
100.000662157648
100.001362563602
100.001600520509
100.001554020925
100.001227879537
100.000888975952
100.001864281775
100.003996767508
100.003270296147
99.9989862280739
99.9994967323539
100.000893166728
100.00131804324
100.001288246885
100.000863160222
99.9995197196899
99.999024366761
100.003302039694
100.004023315756
100.001867438771
100.000903051338
100.001244847402
100.001572187051
100.00161925734
100.001378597811
100.00067805274
99.9974398854255
99.999572090766
99.9994808030499
99.9881767026342
99.9905714973938
99.9907052730691
100.001014416508
99.9956354866165
99.9937206670706
99.9961412573372
99.9982976041685
99.9983277432971
99.9961440027118
99.9936713865042
99.9955946652455
100.00098423117
100.00099358935
99.9974668655991
99.9974283721917
99.9995659645957
99.9984107427942
99.9983871582357
99.9996153266179
99.9975114737121
99.9973529569856
100.00094537168
100.00099367498
99.9955814983434
99.9936242550564
99.9960953712048
99.9982821481059
99.9982541646871
99.996083369608
99.9936685503287
99.9956202846641
100.001023212846
100.000980274535
99.997351700162
99.9975246293709
99.9996227044633
99.9984051596779
99.9984295917543
99.9954916099581
99.995443205023
99.9882202059806
99.9584201629307
99.9583401906451
99.9527419118383
99.9537147028784
99.9588799681863
99.9892618874213
99.9962916309989
99.9956262289425
99.9956220533131
99.996217554407
99.9988491937026
99.9907038245083
99.9905332781182
100.004263619747
99.999473444912
99.9954641954213
99.9954182204185
99.9991964793697
100.00384426621
99.9905238053287
99.9907070278233
99.9892045812223
99.9892425320616
99.9907119251619
99.990562426296
99.9528764874269
99.9526548477217
99.9541622009507
99.9541499258767
99.9526354825195
99.9531624390993
99.9539878121501
99.9540085461307
99.9589289665412
99.989225882766
99.983324923852
99.9666156760282
99.9601845842955
99.9600238503863
99.9575679602037
99.9586221315217
99.9531792096078
99.9538139123937
99.9527953476081
99.9583649799436
99.9881482355208
99.9881916780382
99.9584455997658
99.9529274757846
99.9538913961481
99.9589700077241
99.9589214843816
99.9537946473377
99.9531806033883
99.9586370657328
99.9585066128116
99.9577815592698
99.9577902029152
99.9585321153636
99.9586489185643
99.9575745877914
99.9588931571006
99.9588874776256
99.9595129737385
99.9594744868247
99.9585207017838
99.9526532975537
99.954173024251
99.9541875194827
99.9526759122327
99.9531972856853
99.9540429858807
99.9540215762795
99.957586544952
99.9588982634769
99.9595308541266
99.9594789682867
99.9589691176765
99.9589712605857
99.9594925736496
99.9595303372035
99.9574450727621
99.9572581332733
99.957256694845
99.9574379861803
99.9573827247861
99.9572514281017
99.9589574164204
99.9577900282006
99.9577811447699
99.9584963599145
99.9586088063945
99.9575802536556
99.9588911884595
99.9572644477951
99.9572688972072
99.9574605164573
99.9574054612773
99.9572779333644
99.9572730397367
99.9574018415372
99.9550366069587
99.9550617103383
99.9549822472199
99.9549781923642
99.9550470053388
99.955012419066
99.9549751904676
99.9549789160987
99.9572548013298
99.9589542443935
99.9594631314483
99.9595057187105
99.957439629065
99.9550536414617
99.9549913800312
99.9549986414262
99.9550776562401
99.9550521514563
99.9550150661053
99.9550065890303
99.9530806274705
99.9531009432793
99.9531053368422
99.9530340037104
99.9530265267054
99.9530786501091
99.9530682300581
99.9530297794119
99.953032513405
99.9530661868426
99.9550175281583
99.9573865158206
99.9579551704298
99.9553212449841
99.9533458230877
99.9530874263688
99.9530431496739
99.9530579779834
99.9531288394433
99.9531270393258
99.9530895073734
99.9513322076825
99.9513246111442
99.9513287811654
99.9513180861455
99.9512598963235
99.9512497441147
99.9512716170739
99.9512682962174
99.9512378368463
99.9512441115145
99.9512673137034
99.9512865416265
99.9512709496563
99.9512971346865
99.9513528039957
99.9513615547089
99.9494523543443
99.94942777817
99.949416192234
99.9494038634079
99.9493906158445
99.9493295453466
99.949318763949
99.9493098821959
99.9493018444228
99.9492769756525
99.9492907453627
99.9493135351284
99.9493351859606
99.9493445585362
99.9493934546396
99.9494378847955
99.9471700021283
99.9471614743937
99.9471009324274
99.9470805291186
99.9470658031408
99.9470474891983
99.9469519217583
99.946942093321
99.9469511035201
99.9469173517441
99.9468553969405
99.946882058636
99.9469335055403
99.9469522119711
99.9469666445393
99.9470682727785
99.9438698511872
99.9440166661188
99.9439845331976
99.9438865816581
99.9438184099985
99.9437966876088
99.9437799074533
99.9436630593098
99.9436352503999
99.9436537269247
99.9435792181131
99.9434665020894
99.9435068013919
99.9436027078683
99.9436033699317
99.943651905842
99.9386012015745
99.938940949751
99.9388453055405
99.9387057995816
99.9388021590658
99.9387461278433
99.9385578525542
99.9384957955321
99.9386537158665
99.9385568968507
99.9382740437651
99.9381228377271
99.9383033440791
99.9383486571158
99.9381890488714
99.938190809838
99.9235329629603
99.9252422797428
99.9254112071655
99.9240286860738
99.923904155981
99.9257377318981
99.9256930639821
99.9238156287866
99.9237170163086
99.9250636122106
99.924738010896
99.9231069120954
99.9229134763017
99.9244089292771
99.9244590220364
99.9232154247334
99.9367614692702
99.937790169785
99.9348527970374
99.9349554450588
99.9384051836915
99.9381127669848
99.9346804434663
99.9346088724061
99.9378854481425
99.9380958275373
99.9345589735506
99.9340707204508
99.9369348235626
99.9362339594437
99.9328587960237
99.933105111853
99.9913894429939
100.045054769871
100.002299325462
100.002996640756
100.046432430937
99.9931721031341
99.9926341927179
100.046741969396
100.003645730945
100.004260978891
100.047942081681
100.080140530059
100.079684437529
100.047374371407
99.9938375710677
99.9939392042492
100.118044363335
100.217781637271
100.175187333613
100.175192600438
100.147939600618
100.141513386603
100.140056449677
100.003111570436
100.046004805188
100.076936534034
99.99207327574
99.9914026068026
100.04491005925
100.001557658237
100.001490457772
100.04455231643
99.9911875928059
100.076508769549
100.076709576227
100.170711488141
100.144838857324
100.139700807381
100.138936634664
100.144842432516
100.172734430423
100.173160436765
100.146223897904
100.141134210435
100.142084665659
100.148265951117
100.240412805872
100.279613208058
100.258192259351
100.258045189904
100.279191310391
100.268817603105
100.239761464011
100.334954959885
100.369890223519
100.342547659664
100.333311796797
100.333438374755
100.341489756711
100.277452759726
100.237853789001
100.268768955525
100.334334689454
100.368738239196
100.389744656148
100.396124385362
100.398078614643
100.401778436548
100.402687514517
100.401855298967
100.401018915497
100.400466102537
100.400040021095
100.399847084769
100.399821462688
100.399949374293
100.400151432125
100.400395980345
100.400707602219
100.401270010771
100.402336157226
100.404407322458
100.408696430596
100.416553579182
100.432028155571
100.456729680176
100.497926980857
100.494553993461
100.430057248855
100.372913505657
100.315198635453
100.282713992072
100.303723541061
100.303105284557
100.300786652014
100.301066810971
100.302138239604
100.303220845829
100.304453348127
100.306045733607
100.30795273829
100.309969020365
100.311827316121
100.313259106685
100.31401608041
100.312789580684
100.311273253842
100.309568912624
100.307815276968
100.306076403468
100.304357539199
100.302700107253
100.301189690802
100.299928080819
100.29893434088
100.298181828841
100.297638227213
100.297249373486
100.296977318805
100.296790415087
100.296662058427
100.296597763387
100.296618332755
100.29676219658
100.297103672177
100.297739667299
100.299018291268
100.300596273796
100.301621286057
100.301936684892
100.301914011641
100.301981516949
100.301961836687
100.302073385234
100.30201008153
100.302021612629
100.301962214394
100.301872064919
100.301666147372
100.30141177667
100.301398354391
100.301448849068
100.301804995304
100.30176892253
100.301688936107
100.301875526001
100.301966001694
100.302006665663
100.302007840826
100.302055794915
100.301966682237
100.301966580639
100.301913681952
100.301906032738
100.301649560022
100.301205222173
100.30177508811
100.301917776345
100.301927260948
100.30196369055
100.301966819639
100.30204584984
100.302000861086
100.301990875937
100.301945855027
100.301848105158
100.301918560375
100.301757402055
100.301908374909
100.302118027331
100.302094936232
100.302055146201
100.301952683866
100.301987571597
100.302000593633
100.302041014443
100.301971655551
100.301963734403
100.301926350082
100.301924564193
100.30171243029
100.301507714587
100.301849552709
100.301946632395
100.301955789323
100.301976235544
100.301982493933
100.302038654282
100.302042219038
100.302025118991
100.302048909585
100.302027981446
100.302178812784
100.302296572509
100.30233357686
100.302078784129
100.301864711009
100.302170804129
100.302447291813
100.302367876846
100.302518677346
100.302480129204
100.302305256351
100.302093284523
100.302134073643
100.302079420624
100.302000655693
100.301984763377
100.301974845512
100.301982371026
100.301882504175
100.30191622047
100.301513840627
100.301024467036
100.301686459673
100.301896275725
100.301923613493
100.302001000661
100.302047463651
100.30201893167
100.302083060317
100.302141607531
100.302156676363
100.30215202289
100.30217461791
100.302433725784
100.302624481297
100.302661948416
100.302572521868
100.302709985776
100.302885131576
100.302799886113
100.302734703
100.302539867623
100.302271185543
100.302207986469
100.302211391332
100.302139559341
100.302088271684
100.302048370834
100.302067600627
100.302082730293
100.301975686035
100.301988916129
100.301685485451
100.301523441099
100.301899587651
100.302049462495
100.302043658811
100.302134000447
100.302119478916
100.302175124178
100.302198318298
100.302275980422
100.302332746829
100.302419709543
100.302677904253
100.302922467554
100.302858528839
100.302930133891
100.302739656454
100.302443230753
100.302467301478
100.302794095967
100.303041315967
100.303106626276
100.302981284946
100.302773138928
100.303046183016
100.303122936843
100.303232791043
100.30326726935
100.303297222454
100.303204850494
100.303102526582
100.302863488743
100.302517369316
100.302462589996
100.302369299536
100.30228888243
100.302243221915
100.30225626716
100.302190764705
100.302116811939
100.302126807971
100.301856645183
100.301901345862
100.302095070707
100.302193644047
100.302200743774
100.302245934124
100.302357445345
100.302326059965
100.302406734532
100.302413014487
100.302434155443
100.302493917079
100.302586719072
100.302924390401
100.303165891416
100.303250751542
100.303218785724
100.303163722678
100.302982642786
100.302999142226
100.30273776244
100.302602246123
100.302514715107
100.302469407858
100.302421253492
100.302354847612
100.302383271435
100.302362020001
100.302346235185
100.302262967855
100.302022699784
100.302217570007
100.302257807584
100.302305194112
100.302425225318
100.302411849266
100.302428140808
100.302511347322
100.30258725099
100.302625392811
100.302714927573
100.30303412157
100.30321296219
100.303216818185
100.303108294439
100.302881751635
100.303109426033
100.303133014266
100.30326509981
100.303279339003
100.303199421056
100.303056201139
100.302808771099
100.302717043723
100.30260363237
100.302647239523
100.302592314897
100.302522902977
100.302532035191
100.302485053428
100.302399667589
100.302447839439
100.302454887245
100.302081509262
100.302219854667
100.302372686295
100.302266665237
100.30250912089
100.302469195518
100.302588696822
100.302549349018
100.302628634896
100.302681082799
100.302745168275
100.302858633597
100.302886561997
100.303092105772
100.303261579527
100.303212672039
100.30322995084
100.303087191859
100.303105586526
100.303242409054
100.303317451641
100.303242584047
100.303371191776
100.303427929152
100.303431165776
100.303319187683
100.303189305757
100.30297748716
100.302889737287
100.302828276001
100.302783361972
100.302720005966
100.302663447555
100.302749534814
100.302564915915
100.302599521827
100.302504089865
100.302488203503
100.30217073664
100.301551869648
100.300758009936
100.301765027012
100.301162239687
100.300467446891
100.29971862017
100.29893947662
100.300362844998
100.299727950033
100.298261646678
100.29737231478
100.296867753669
100.296624295987
100.296553710558
100.296585938426
100.296697029124
100.296875732423
100.297136137423
100.297500959644
100.298006056015
100.298705279226
100.299646785812
100.300869490894
100.302343723067
100.303967710641
100.305625277971
100.307274730444
100.308926356044
100.310529300636
100.311943922949
100.313087836599
100.313880063383
100.314860847218
100.315397459787
100.314536750828
100.313279937614
100.311720999274
100.3099680309
100.308158254388
100.306367576723
100.304613656651
100.302936981469
100.301410605445
100.300125305168
100.299095210473
100.298300391755
100.297725039322
100.297315046258
100.297031326102
100.296839316007
100.296705415228
100.296634842552
100.296637551614
100.29673287251
100.297013803373
100.297511120545
100.29861503537
100.300082212516
100.301453701141
100.301985602211
100.302036773577
100.302094348644
100.302109888018
100.302215275074
100.302088273865
100.302210337961
100.302139309432
100.302057059392
100.301825181451
100.301525862786
100.301446707508
100.300970633421
100.300417648459
100.299632402547
100.29969791543
100.299903708066
100.300231238985
100.300733260247
100.301262971495
100.30112957574
100.300764462355
100.300505497821
100.300434057437
100.300966931105
100.30102738985
100.301233614969
100.301585080064
100.301763997142
100.302046790712
100.301785017414
100.301513690706
100.301107204049
100.30054433132
100.299593728811
100.300090614757
100.300840500807
100.300869243758
100.301394677434
100.30159644377
100.30110571834
100.30148602285
100.301757736747
100.302235462968
100.30218367328
100.302016519081
100.302409019302
100.302551927777
100.302747373188
100.302395768586
100.302019423774
100.301568296376
100.300774816985
100.301192822609
100.301701881196
100.301828919387
100.302376587644
100.302644406385
100.302092890748
100.302282149564
100.302635683379
100.302754571445
100.303081780067
100.302965717578
100.302658523285
100.302787102563
100.302748426013
100.302575102245
100.302319014298
100.302286052523
100.302239581701
100.302190385994
100.302082529174
100.302011704248
100.301929409535
100.30191680814
100.3019298716
100.301933178152
100.301888371568
100.301885200805
100.301887500524
100.301890168819
100.301892410943
100.301954498474
100.301919971301
100.302051483447
100.301947616975
100.302121076376
100.302025530343
100.302086593033
100.302013567409
100.301931146218
100.301705528967
100.301583240486
100.301793357124
100.301963345173
100.302039146139
100.30214220448
100.302214080268
100.302254282872
100.302241643135
100.302168928829
100.301916266193
100.301640060703
100.301110696927
100.300546793488
100.299753195186
100.299632422994
100.298565316264
100.297425699648
100.295593021321
100.295727009523
100.297407469308
100.29751544629
100.29859896266
100.29858318026
100.297431729318
100.298063214944
100.298623853043
100.299208798786
100.297856714127
100.296813614925
100.295165814049
100.296570363987
100.297103598391
100.297791137365
100.29837358725
100.298876042265
100.299716807423
100.299885957974
100.299554374877
100.298801984537
100.298112146903
100.297857191217
100.298585828063
100.29807714752
100.299199559842
100.301328305084
100.301704706237
100.301673392124
100.301679747846
100.30159722432
100.301515094981
100.301414389768
100.301520280675
100.301322638191
100.301242868714
100.301382571045
100.302001200114
100.302091615095
100.302151897702
100.302196985831
100.302142404316
100.302274152319
100.302278700874
100.302253163133
100.302238798292
100.302168809422
100.301883587976
100.301654833855
100.301075556067
100.300529523814
100.299759016846
100.298532678463
100.297501357565
100.295529882814
100.295546164174
100.29309880927
100.290106707145
100.290456308497
100.291026692335
100.292128593255
100.293246840462
100.294220088457
100.29202594075
100.290065961865
100.291728865371
100.293213278576
100.294075328018
100.295303630556
100.295473900803
100.294740075783
100.293384107057
100.292770789434
100.294230224941
100.295623376316
100.296156691179
100.295860708617
100.29730741564
100.298697388067
100.301155378775
100.301597283554
100.301412838373
100.300665638804
100.301225721428
100.301016504237
100.300074683309
100.300894364708
100.300889374327
100.301234713367
100.301379203743
100.302008463726
100.302104184486
100.302164493316
100.302205273669
100.302144282175
100.302193041356
100.302096694987
100.302215012942
100.302136246479
100.302062361364
100.301793347135
100.301549622152
100.300998841658
100.300424245294
100.299646241695
100.298518367419
100.297433620324
100.295553030421
100.293267197158
100.290346375502
100.290062508605
100.286249028199
100.281841956647
100.259788099574
100.259422095542
100.263110652434
100.280485887528
100.282804180571
100.281873283571
100.286272390851
100.286869193825
100.287674266107
100.281595523267
100.285330642871
100.287889554633
100.284317038941
100.279828863845
100.272028448877
100.279308402653
100.284465929815
100.284399485951
100.287104181116
100.289175201968
100.287194450981
100.290104073586
100.291532096813
100.292916917072
100.294106133626
100.294076632336
100.292532917264
100.291278185161
100.290846733147
100.29230164028
100.293548538726
100.294053885183
100.294676090093
100.292988171038
100.294062317672
100.293768808113
100.293806853113
100.293756329232
100.293931467215
100.293586035537
100.291886149082
100.293081104681
100.291843279571
100.29532779762
100.292988648768
100.293078025429
100.293289913478
100.293237569882
100.292836445762
100.293612992611
100.293486282674
100.293093107298
100.291973822445
100.291148178716
100.292936956952
100.291312549259
100.291562340972
100.2922873749
100.292768354866
100.291663188682
100.29101682731
100.291168746583
100.298422689075
100.297700046096
100.297424869241
100.297683626601
100.299229892401
100.300966214069
100.299617448877
100.299299798506
100.299664825647
100.296478791619
100.297817637672
100.29649890216
100.294379072006
100.293798184457
100.295657025277
100.297166970185
100.296243986954
100.296148324053
100.294949639387
100.2941452163
100.294643382162
100.294549871228
100.297990207793
100.299679016849
100.301205008155
100.301735904941
100.301884550636
100.301862839152
100.30164831745
100.301573977183
100.301389452951
100.301262050024
100.300905021211
100.300255558471
100.299719552085
100.299671271816
100.300051436848
100.301441797155
100.302003329494
100.302063032593
100.302117379319
100.302126424761
100.302223189977
100.302136745711
100.30203094726
100.302092435997
100.302010203069
100.301924185842
100.301697827608
100.301430898566
100.30096812513
100.300397601744
100.299588667364
100.298636331322
100.297429365773
100.29569140488
100.293622278672
100.290954555384
100.287647309534
100.281470515298
100.280430144033
100.263629619861
100.245172294337
100.167861913667
100.183094575239
100.201707625074
100.205377856171
100.201652163859
100.196627573925
100.206997925903
100.203432358201
100.197952171428
100.209196735756
100.205640098152
100.19865445517
100.208499366007
100.205181017118
100.19798914415
100.207345810393
100.204058588642
100.19694214639
100.206001423207
100.202755186048
100.1958743585
100.203941291428
100.201820438053
100.202323891177
100.20173472173
100.200489385192
100.200510150897
100.200739850179
100.200261460103
100.200270851553
100.200621111204
100.200138108631
100.199828659404
100.200360068481
100.200287711357
100.200006389902
100.200072384572
100.200268660108
100.200461460408
100.200913668846
100.200586745352
100.200268135657
100.199997024854
100.200558482757
100.200408328265
100.200086558997
100.199429050011
100.199368509622
100.199977313142
100.200354360341
100.200522917247
100.199977612676
100.200257276495
100.200580208932
100.200912685211
100.200450243947
100.200257182125
100.200072703283
100.200017578208
100.200289565308
100.200361344551
100.199822727028
100.200131756352
100.200617833745
100.200261799363
100.200274776707
100.200700564996
100.200484916993
100.200489734492
100.201752411512
100.202360572734
100.201864866703
100.204003035848
100.203134019915
100.204236298041
100.202588894635
100.201812724921
100.203414330409
100.203131367254
100.201703677757
100.201300427687
100.201567092621
100.199185694785
100.200001909251
100.200396965724
100.20047677813
100.200541840643
100.200283948134
100.199870815149
100.200349417473
100.199618828731
100.199602001255
100.200652944266
100.199673343219
100.201354139098
100.200875578406
100.200810595757
100.20052129452
100.200594074967
100.200447188864
100.200423920561
100.200476619114
100.200940364462
100.200278613676
100.200174532958
100.20014325688
100.200304713584
100.200833966436
100.200374626896
100.200393838986
100.20044810894
100.200558751093
100.200147866965
100.200309443189
100.20078489172
100.201513222104
100.200069371102
100.200102880598
100.199929400069
100.199944389407
100.200137401492
100.200082736908
100.201532568981
100.200793569877
100.200324805324
100.200163710658
100.200563000215
100.200734520582
100.200918797937
100.200909094645
100.200737262874
100.200600610388
100.200646592706
100.200655005311
100.200603200698
100.200715603512
100.200381932745
100.200402256591
100.200454342348
100.200970307468
100.200129681825
100.200362256118
100.201835643219
100.201327532595
100.201535528804
100.201147727585
100.202282267151
100.201633708406
100.200862951279
100.201231369784
100.201496613413
100.201519563673
100.201224256928
100.200854316769
100.201636389023
100.202322955272
100.20115365883
100.201535875385
100.201321861234
100.201837286569
100.200882726095
100.202602538719
100.201920177237
100.201824803325
100.200776911573
100.200695455668
100.200030945067
100.201146573159
100.199770808019
100.200851750872
100.201451918217
100.20042107997
100.2016714969
100.201225023159
100.203119584591
100.204076815075
100.201045494814
100.195938025103
100.202832347952
100.206089144483
100.197015644498
100.204168013929
100.207472579799
100.198121234509
100.205340596488
100.208679233027
100.198831993273
100.205834308745
100.20946861734
100.198291856043
100.203760523546
100.207198209944
100.197085702158
100.202347991705
100.20238780027
100.19967823442
100.19695177039
100.196799714977
100.2018607146
100.199708191294
100.197414512462
100.193498853383
100.198231033816
100.198323164718
100.193586576211
100.185720145918
100.185480589525
100.164184781328
100.237373842551
100.236791560139
100.16497886197
100.16854887675
100.183609005722
100.201937698874
100.205580640159
100.193834808839
100.189264129357
100.19440994209
100.192857844614
100.198444289806
100.206026224658
100.202116789134
100.202461041044
100.206329608757
100.203092515749
100.202552724243
100.205028670824
100.202279913106
100.201791762082
100.203394554448
100.201160984085
100.20091973448
100.20178764159
100.199980004601
100.20381221755
100.202862073122
100.201135446948
100.201693432072
100.203024650369
100.201683482572
100.201251705782
100.200380940225
100.202581155714
100.202612447186
100.200252554446
100.204204356324
100.204605406183
100.201769899348
100.205039280812
100.206095746077
100.202895556768
100.205881056611
100.20663488977
100.203279643974
100.202115514677
100.189192983902
100.178264007417
100.1788160879
100.188277777707
100.18547736976
100.183994616256
100.190164055081
100.177957672998
100.18286494175
100.176041593873
100.175838611197
100.181900036776
100.228978167833
100.254680082769
100.230993137811
100.160043088274
100.160737741629
100.185564671728
100.152652755774
100.13823210911
100.206864751393
100.248055241783
100.270595019841
100.279521845868
100.285286223115
100.287509122994
100.287343999841
100.282733191513
100.275234576489
100.261837868685
100.268890727072
100.277005860543
100.284228766922
100.287830936587
100.290971194623
100.293549100661
100.293857575451
100.29657999597
100.298175817517
100.297288574316
100.296603008242
100.296525187079
100.297126427505
100.300146688499
100.300501028266
100.301510683951
100.301981864738
100.301942315264
100.302082648018
100.301961955985
100.301964229222
100.302080887621
100.302006245617
100.302017357644
100.301952311848
100.301855465898
100.301657481547
100.301399667703
100.300973403244
100.300443465369
100.299706130758
100.298781887048
100.297704372272
100.296077389433
100.294260990415
100.292053269632
100.289290761009
100.285299577089
100.281011353852
100.274501732377
100.25455860378
100.228214517203
100.181580690465
100.17635695176
100.175847564954
100.182940281866
100.193730080435
100.188781026745
100.193415046627
100.192754484121
100.198593943042
100.205968351316
100.202059244546
100.202451901571
100.206281674748
100.203079465337
100.202542330011
100.205005856333
100.202258305118
100.201779771613
100.20339621001
100.201143513003
100.200913397858
100.201783416383
100.199962114463
100.201817288679
100.204057138922
100.203123861019
100.201704282261
100.201292173802
100.201576098762
100.201825680474
100.203427451285
100.203119971876
100.20423414146
100.202590983963
100.202218841754
100.202901690875
100.201350501565
100.200863959786
100.202154610823
100.203814173762
100.202848693162
100.20113592069
100.201682231754
100.200421254238
100.201457027907
100.200864482179
100.19977272361
100.201153779989
100.200036791002
100.200695515168
100.200779086486
100.201835437668
100.20194248993
100.202616300648
100.200897078328
100.200218723336
100.200863435043
100.200208343196
100.200783172632
100.200415233894
100.200844012094
100.201489738973
100.2010817253
100.200455047801
100.200569564599
100.202977408847
100.205047071856
100.202697106249
100.201849136102
100.201972025719
100.202402434525
100.202113516126
100.202628044388
100.202610132944
100.202114099747
100.202405577547
100.201965810164
100.202686605054
100.205071495846
100.202998178761
100.202992550779
100.203877778677
100.202921378491
100.202012706795
100.201936885066
100.202313234099
100.201351235319
100.200557077954
100.201941813133
100.201403407669
100.200117705605
100.202604320886
100.202885632818
100.202108158523
100.202052937977
100.202760517697
100.204183168659
100.203545094782
100.202674972629
100.203510637881
100.205979425303
100.205312192491
100.202479653295
100.203070542085
100.207662921642
100.207903499666
100.20116186534
100.19098602721
100.184054977182
100.177818195507
100.181624911536
100.182256025218
100.186506064343
100.18812512512
100.183844615183
100.173693857716
100.174027704736
100.17388929146
100.170420027232
100.160397916078
100.161961162302
100.178493623687
100.175213716181
100.177844856079
100.195870280783
100.198967821902
100.211325810608
100.230817266882
100.217625238781
100.223325852131
100.242809564202
100.261395482981
100.244331116333
100.264898253788
100.276104337813
100.281124072021
100.274823676487
100.273950157139
100.281508669869
100.28711616615
100.290638380528
100.293406328746
100.293404713621
100.292876936502
100.292326038998
100.297799568996
100.298301803555
100.298331924514
100.296465325322
100.297215438351
100.29888955891
100.29720047545
100.298784372723
100.299228596742
100.300767245581
100.300957961866
100.300713100605
100.301402014935
100.298852534413
100.299797381647
100.299764704806
100.299077320845
100.299651471128
100.299020483169
100.299050738807
100.298947318516
100.298951347028
100.299042519385
100.299386635588
100.299436942165
100.29965738871
100.299848221584
100.299735898343
100.299275536352
100.298727992342
100.298586547381
100.29889844319
100.299062298372
100.299169151773
100.299061549453
100.299055558983
100.299107618726
100.299008048018
100.299017273954
100.298863868933
100.298786253218
100.298130962182
100.298346098842
100.29853584748
100.298882446123
100.299199614017
100.29921509967
100.298914876915
100.298671242053
100.298965970496
100.299183828571
100.299103588576
100.298897622489
100.29931367536
100.299053001612
100.298893577461
100.299731740197
100.300330141404
100.299874729209
100.299917346171
100.299553310368
100.299113894652
100.298915741774
100.299568110948
100.300127803909
100.300092669859
100.299579705766
100.299846829612
100.300278279381
100.300222657999
100.300105336713
100.299621695217
100.299688921457
100.300210590488
100.300262523297