/*--------------------------------*- C++ -*----------------------------------*\
| =========                 |                                                 |
| \\      /  F ield         | OpenFOAM: The Open Source CFD Toolbox           |
|  \\    /   O peration     | Version:  v1612+                                |
|   \\  /    A nd           | Web:      www.OpenFOAM.com                      |
|    \\/     M anipulation  |                                                 |
\*---------------------------------------------------------------------------*/
FoamFile
{
    version     2.0;
    format      ascii;
    class       volScalarField;
    location    "1.2";
    object      p;
}
// * * * * * * * * * * * * * * * * * * * * * * * * * * * * * * * * * * * * * //

dimensions      [0 2 -2 0 0 0 0];

internalField   nonuniform List<scalar> 
80571
(
100.260498596369
100.260081662561
100.259541158948
100.262431646797
100.266890873044
100.266918505739
100.26731497081
100.268013508766
100.265842273118
100.265897030353
100.266088587415
100.265971628254
100.266081861992
100.266258235517
100.266010403018
100.26586451688
100.268028669454
100.267302733584
100.266903570922
100.266879434587
100.267586645645
100.268132613563
100.265855502819
100.266168932877
100.266428645232
100.265740908709
100.265741038561
100.266429330182
100.266169786659
100.265856824841
100.268138003497
100.267591310002
100.26688256117
100.266905896751
100.267303965044
100.268028875613
100.265868332256
100.26601405242
100.266259688016
100.266085303152
100.26597551115
100.266092265321
100.265902605647
100.265847286913
100.268014583224
100.267316202352
100.26692066225
100.266894205352
100.267604228064
100.268153826967
100.265864921327
100.266179234795
100.266442095288
100.265754108477
100.265754394775
100.266442674248
100.266179183269
100.265863775042
100.268149056281
100.267599834018
100.262846405638
100.263117122144
100.262470891275
100.262177198344
100.26253928891
100.262813634588
100.262813779102
100.262539345742
100.262176658988
100.262471483377
100.26311930872
100.26284804277
100.262434280117
100.2628150031
100.263533849428
100.263932279654
100.263984315431
100.264113352785
100.263738093559
100.264111225581
100.264174164475
100.263767274566
100.264077480015
100.263972428912
100.263935170748
100.263526944326
100.262820462752
100.262424308803
100.262840503068
100.263107958479
100.262460671911
100.262165667619
100.262527176412
100.262801782643
100.262801800081
100.262527264898
100.26216535048
100.262459938511
100.263106879858
100.262839590899
100.26242181327
100.262818292048
100.263524334846
100.263933079884
100.263968996236
100.264071653674
100.263762730119
100.264169280955
100.264106259597
100.263733997129
100.264107960257
100.263980889375
100.263930282769
100.263530993891
100.262812421409
100.260041874286
100.261068480942
100.259389075801
100.260033869339
100.260352147161
100.260095363104
100.260651044689
100.258757638323
100.258731898171
100.259753251778
100.259753613051
100.258731055828
100.258755789573
100.260651134986
100.260099392122
100.260174592452
100.259543750966
100.260043311974
100.261071191292
100.261237533606
100.262476267444
100.262687744892
100.261577260105
100.261478045126
100.261428077378
100.261484581132
100.262605453694
100.26243791754
100.261226494278
100.261063822377
100.260040833804
100.259539268543
100.260164256972
100.260086226585
100.260639519915
100.258744723079
100.258719474494
100.259741997734
100.259741949892
100.258719340477
100.258744690624
100.260638994828
100.260084531824
100.260163424019
100.259536591036
100.260039481631
100.261061074572
100.261225350361
100.262434634479
100.262595415146
100.261477055309
100.261422825765
100.261472990569
100.2615688032
100.262676947736
100.262472734908
100.261238104452
100.259378051532
100.251319548086
100.251651661721
100.251705609062
100.251899796086
100.252165401964
100.261051992573
100.259727578787
100.259895066707
100.259894614933
100.259725670732
100.261054054468
100.260354319273
100.260030565073
100.260083032421
100.259393375726
100.259375410625
100.259496241667
100.263883602496
100.261140765187
100.261070479888
100.263796359399
100.259489638267
100.259374351447
100.259403416545
100.260004088362
100.260076970834
100.260495862511
100.261341285364
100.262083020573
100.261952852542
100.262490738724
100.264734091234
100.264765523194
100.263354727263
100.261961733511
100.260974192407
100.260361518013
100.260076375949
100.260076114392
100.260360721968
100.260972841722
100.261959831088
100.263352483768
100.265202122362
100.265427028498
100.26392009598
100.262270480707
100.261056543116
100.260216464344
100.259713264652
100.259465236462
100.259465504642
100.259714098657
100.260217846268
100.261058455317
100.262272871161
100.26392304784
100.265428809071
100.265203897137
100.263260575082
100.263566927679
100.263384968216
100.262923982071
100.262697494423
100.262125696134
100.262906475021
100.262640354864
100.261132764697
100.258067507738
100.252745953578
100.251330154857
100.251650613859
100.251715701972
100.251906174163
100.252162649708
100.252161885856
100.251903937201
100.251711819041
100.25164610159
100.251325198678
100.251394083537
100.251382776449
100.250211649535
100.250077571702
100.25015309879
100.250015706421
100.250085752303
100.250148679516
100.250149679578
100.252166558738
100.251901916981
100.25170909668
100.251656157913
100.251324154349
100.25138579884
100.25139739999
100.250219110925
100.250078381261
100.250149074012
100.250025159946
100.250088516087
100.250144922228
100.250143848936
100.250085429232
100.250019642606
100.250143180239
100.250070171966
100.250211746604
100.250653376106
100.250659095589
100.250541309442
100.250583963047
100.250465851684
100.250506901747
100.250505737397
100.250506879657
100.250511338468
100.250088693974
100.250021031204
100.250158909664
100.250085548615
100.250218922575
100.250670854573
100.250665344856
100.250543345145
100.25058338722
100.250463807772
100.250498930295
100.250494553763
100.250493259112
100.250494109945
100.250456087984
100.250573670375
100.250531228583
100.250276578704
100.250326831818
100.25033094332
100.2502892567
100.250363234012
100.250307525529
100.25032716889
100.250317257954
100.250319615819
100.250333758021
100.250318149478
100.25047305594
100.25059330804
100.25055298317
100.25030574667
100.250348661537
100.25034492919
100.25029394306
100.250361868532
100.250297864599
100.250310250229
100.250294515666
100.250291804676
100.250302807821
100.250286085197
100.250347195612
100.249321103905
100.249255258277
100.249300395254
100.249305894006
100.249273080528
100.249347196901
100.249321485491
100.249339279547
100.249352460846
100.249356401189
100.249349435268
100.249338006067
100.249368700267
100.250377140705
100.250544070534
100.249486072123
100.249298410014
100.249333378621
100.249328565315
100.249282101624
100.249343995676
100.249303307647
100.249311507903
100.249315837896
100.24931105529
100.249300091926
100.249284801833
100.248046587291
100.248080819703
100.248031646793
100.248098568332
100.248108423324
100.248063727678
100.248120520973
100.248104295967
100.248113417746
100.248150007948
100.248156031298
100.248130481037
100.248129590126
100.248154114017
100.248103403728
100.248151841788
100.248142725521
100.248073817453
100.248117033592
100.248076114743
100.248070479626
100.248091417345
100.248083901369
100.248051992943
100.246695955394
100.246735876878
100.246766056804
100.246707929437
100.246812864295
100.246827538803
100.246760691245
100.24683578813
100.246823789194
100.246793609544
100.246866369226
100.246875352428
100.246819757409
100.246864031335
100.246888151813
100.246822207701
100.246895936202
100.2468819729
100.246773062157
100.246824322527
100.246780901029
100.246726185815
100.24677281441
100.246760225639
100.245123522427
100.244954372745
100.245088398404
100.245119254358
100.24500357656
100.245214623813
100.245235598472
100.245085457332
100.245236425535
100.245229034719
100.245109392528
100.24528837072
100.245301469987
100.245151293944
100.245291016727
100.245317368032
100.245180053473
100.245341327208
100.245319956583
100.245101659831
100.245208342843
100.245158926927
100.24501061064
100.245143709778
100.242789327054
100.242758010616
100.242303679618
100.242627692992
100.242667445175
100.24240743433
100.242898082007
100.242931581809
100.242532063461
100.242849394035
100.242848848729
100.24254151533
100.243007018543
100.243027013314
100.242601407195
100.242937821756
100.242972674317
100.242679823875
100.24309200809
100.243055512249
100.242555844949
100.242804824201
100.24273951949
100.242385307113
100.237400898733
100.238601650787
100.238549395293
100.237264993683
100.238135158752
100.23818109167
100.237469793386
100.238811903191
100.238863843821
100.237664891174
100.238478017287
100.23848685108
100.237658835977
100.238943404954
100.23897115644
100.237745448301
100.238618833646
100.238665614106
100.237905264066
100.239122046216
100.239053919932
100.237695356313
100.238404799896
100.238315541626
100.231677916101
100.229666049564
100.232454393593
100.232367468679
100.229433214424
100.231383285207
100.231444476234
100.229903388834
100.232893332224
100.232931817339
100.230129515813
100.231948596749
100.231959560122
100.230077235314
100.232968942021
100.232997830948
100.230182270027
100.232164582076
100.232242916905
100.230525449734
100.233338825165
100.233218452144
100.230187741335
100.231812014603
100.240741761113
100.240589390385
100.238688889543
100.240909738865
100.240774452288
100.238351248375
100.240121245664
100.240105731796
100.238751094915
100.241274361962
100.241709757172
100.239317977574
100.241019528343
100.240992111919
100.23941625886
100.241602562345
100.241597132682
100.239251775427
100.241335916719
100.2414065432
100.240132896732
100.242364848729
100.242107446133
100.239538101405
100.276518198479
100.270879550411
100.270945770795
100.275715501858
100.271368681412
100.271275974754
100.275366180478
100.270410823381
100.270163724969
100.275591979479
100.271980459492
100.27245228928
100.276731047389
100.271265938041
100.27153553662
100.276428198765
100.272178394298
100.272249972929
100.276666173256
100.2719044183
100.271751507057
100.277400124785
100.273187786515
100.272827482715
100.311117284294
100.327805274624
100.316322558798
100.326285477844
100.308704788877
100.32509598359
100.314518480706
100.326085124539
100.308627119283
100.30855626598
100.325892726292
100.314133059355
100.324335478779
100.32525072598
100.315308338378
100.326784199452
100.343862685573
100.344497120623
100.327972640034
100.31082419279
100.310165729275
100.357207387109
100.386391184562
100.373709022846
100.374785761485
100.384691696359
100.373691628029
100.36148744702
100.316902914292
100.327310531951
100.325915607878
100.309458516957
100.364274972122
100.385302793126
100.366390338756
100.365479385749
100.37173811675
100.380282576253
100.358265486932
100.315195371211
100.326844433256
100.343025990187
100.309452683509
100.309561592687
100.327076703345
100.315541310554
100.326369616536
100.309934931664
100.32783270414
100.317571402744
100.328727105268
100.311651087689
100.345434254455
100.344962780985
100.374941732174
100.383144520754
100.360367220163
100.372438133564
100.365104627517
100.364642546701
100.371007577542
100.357695795082
100.380125009315
100.370823188846
100.370791559737
100.379948725433
100.370474289037
100.363827000809
100.364045742973
100.371259825452
100.381803243315
100.399000822392
100.402173725844
100.408013716601
100.408226579696
100.404044629363
100.395783976208
100.394532625282
100.409460660897
100.415276691575
100.413958623972
100.414146661828
100.414099161135
100.413566084548
100.412434619662
100.402029487545
100.406195032478
100.403654335727
100.393940536296
100.414064689711
100.415154965393
100.414491378909
100.411671155306
100.41152277329
100.410942001967
100.401669005789
100.391865219544
100.403494053932
100.410979131947
100.412721374831
100.415770437633
100.416315215353
100.416205119183
100.416787237865
100.417122866582
100.417200451293
100.417263489776
100.417322429548
100.417364094065
100.417400249939
100.417443918423
100.417496870566
100.417552659049
100.417608449604
100.417722159627
100.417997171215
100.418599595744
100.420034288254
100.42288345289
100.428519280213
100.437222931636
100.453929713218
100.446058175499
100.40029408655
100.356809210637
100.310959028982
100.286373596238
100.301420039627
100.302202648742
100.300037506587
100.29980145591
100.300718486216
100.301814229963
100.302979934416
100.304356349625
100.305894102026
100.307375614302
100.30857534417
100.309377347078
100.309739134161
100.309052710627
100.308160356782
100.30708095788
100.305801431488
100.304250806918
100.302463812077
100.300640468618
100.298990518443
100.297671419601
100.296695823644
100.296034181064
100.295585415434
100.295271558164
100.295049530439
100.294899773575
100.294849973344
100.294931216719
100.29526732942
100.295966366256
100.297214150428
100.299046289742
100.300593818807
100.301012354176
100.301094791844
100.301097916778
100.301135274976
100.301125235258
100.301155996456
100.301188909277
100.301169040701
100.301180516825
100.301143415316
100.301030774513
100.300867167424
100.300965086544
100.30111224142
100.301263180816
100.30121834711
100.301091549562
100.301162776921
100.30118632584
100.301172716002
100.301171533641
100.30118983896
100.301189738354
100.301143599127
100.301148275505
100.301125041297
100.301115863334
100.301101027783
100.30096704458
100.300826581298
100.301044485567
100.301117553095
100.301131701624
100.301144743244
100.301153432726
100.301200356016
100.301185803872
100.30118063252
100.301201206518
100.301206065839
100.301293354613
100.30125130959
100.301358956439
100.301426321323
100.30139942257
100.30132837745
100.30122525633
100.301195093999
100.301215284477
100.301214535972
100.301176814799
100.30117213744
100.30115882733
100.301154374647
100.301025194429
100.301029701812
100.301187514519
100.301206067196
100.301198152826
100.301204977191
100.301207661756
100.301234226081
100.301258948407
100.301251555497
100.301262821305
100.301265730071
100.301419905622
100.301532630976
100.301563970381
100.301513987955
100.30138198151
100.301582705266
100.301622754219
100.301757213574
100.301840728193
100.301804326571
100.301666833365
100.301599955463
100.301484389848
100.30130001418
100.30130887576
100.30127856185
100.301247321062
100.301228543642
100.301229664016
100.301243253464
100.301204705357
100.301250072167
100.301032145828
100.300822943712
100.301151572167
100.301248345231
100.301245458784
100.301270964514
100.301291222356
100.301281145236
100.301318843207
100.301328073571
100.301343999047
100.301376004682
100.301365939176
100.301557091017
100.30168241473
100.301784981801
100.301772961123
100.301801275341
100.301692561973
100.301663385582
100.301506683394
100.301471329802
100.301419883534
100.301403866211
100.30134668634
100.301295555418
100.301326133556
100.301336251497
100.30129347253
100.301307297929
100.301124084421
100.301152098993
100.301301534553
100.30136752709
100.301360674071
100.301384022043
100.301376572072
100.301435144926
100.301477131816
100.301515145933
100.301546701581
100.301740677629
100.301883914471
100.301981308987
100.302003558231
100.301885113108
100.302035316574
100.302024685055
100.302097641528
100.302170277425
100.302124950714
100.302045880253
100.301904780023
100.301762892989
100.301578162255
100.301559936837
100.301564981436
100.301507668799
100.301545998431
100.301458025728
100.301425874671
100.301448450394
100.30129048767
100.301408971424
100.30150679163
100.301530810622
100.301486542392
100.301556052445
100.301565531678
100.301589019025
100.301576969045
100.301631942114
100.301632235058
100.301821811078
100.301966568308
100.302090530479
100.302108671033
100.302111364611
100.301951661823
100.301924769078
100.301739075878
100.301689554146
100.301627743723
100.301630696565
100.30160371834
100.301613293149
100.301634049955
100.301590833653
100.301542687557
100.301620321989
100.301353801614
100.301485769075
100.301575254231
100.301647748725
100.301609327907
100.301649857976
100.301673767867
100.301703954279
100.301677013869
100.301735278597
100.301711884211
100.301779651585
100.302037330342
100.302207269683
100.302319317847
100.302311218712
100.302372398661
100.302434880931
100.302393292977
100.302243670601
100.302072189976
100.301861503549
100.301829036123
100.301729602931
100.301734130082
100.301773231478
100.301698720623
100.301723672839
100.301770731329
100.301713782794
100.301764209846
100.301703478653
100.30151289141
100.301720292529
100.301715612691
100.301746834477
100.301811475531
100.301774126489
100.301881001253
100.301809373513
100.30189749554
100.301873128302
100.301910362606
100.302018592885
100.30219723759
100.302373515582
100.302385077584
100.302353119614
100.302196666542
100.302255142607
100.302424458139
100.302563460998
100.30249395702
100.30260978579
100.302499922309
100.302518923056
100.302512807882
100.302341751695
100.302134983761
100.301996373807
100.301960357824
100.301879198873
100.301869104008
100.301909292565
100.30184742151
100.301859943644
100.301866372981
100.301852090258
100.301816873501
100.301853500784
100.301845304185
100.301529048593
100.30187191926
100.301769021142
100.301693463047
100.3019012167
100.301863115663
100.301899463094
100.3019247322
100.301896423284
100.301950169739
100.301938977639
100.302055107398
100.302141228944
100.302176588434
100.302413938432
100.302589042159
100.302767625875
100.302704117739
100.30283322299
100.302767413135
100.302774890364
100.302745569691
100.302538548821
100.30230808272
100.302227087421
100.302080390487
100.302053353518
100.302076058959
100.30197704531
100.302029662871
100.301955016014
100.30192248173
100.301966275273
100.301892282359
100.30188444091
100.301964631292
100.30158052545
100.300764912861
100.301548538415
100.300959218832
100.300117538182
100.301050463869
100.300475216387
100.299742780498
100.298866779156
100.300237243872
100.29969612907
100.297998839914
100.296524009345
100.295542480394
100.295008887875
100.294792501296
100.294763613034
100.294866709948
100.295066356172
100.2953655262
100.2957943917
100.296417437
100.297315701721
100.298526081195
100.300058851102
100.301780550518
100.303502097744
100.305042594014
100.306343036242
100.307447907339
100.308372404461
100.30909199086
100.309645997251
100.310261069863
100.310672816333
100.310176424247
100.309513025339
100.30863963218
100.307561227819
100.306270848918
100.304703679066
100.302890561592
100.301029645438
100.299325065687
100.297939707268
100.296912782905
100.296219795239
100.295755637839
100.295437676445
100.295210942229
100.295048426087
100.29495771077
100.294972872152
100.295175411389
100.295664079995
100.296632796544
100.298345303837
100.300246410907
100.300960711481
100.301093864313
100.301109325089
100.301128449582
100.301138415731
100.301165154678
100.301190084312
100.301189488119
100.301208658392
100.301150470566
100.301005754243
100.300745329136
100.30082258415
100.30054572783
100.300080892439
100.299423218569
100.299746298395
100.300115336391
100.300586530746
100.300510086656
100.300248565326
100.300640121512
100.300800502502
100.300994863795
100.300770781176
100.301000282613
100.301164453867
100.300785391784
100.30032885517
100.300688965439
100.300908690568
100.301195967081
100.301575904116
100.301511894939
100.301314912507
100.301067312799
100.300989554812
100.301122419229
100.301280732632
100.301247239457
100.301210684133
100.301061110219
100.301223705308
100.301182284983
100.301156901194
100.301093173398
100.301059031359
100.301036261789
100.301041803719
100.30105746806
100.301101889319
100.301126112094
100.301126403536
100.301155651119
100.301184432485
100.301170556855
100.301184668867
100.301138866676
100.301012320267
100.300934653038
100.301071791272
100.301170275503
100.30116262469
100.301186823113
100.301186814471
100.301185967332
100.301155394511
100.301193241118
100.30117784296
100.301200009896
100.30114636699
100.301019503355
100.300768868848
100.300343854669
100.300809477928
100.300432321652
100.299990444468
100.299267612585
100.29831986855
100.297212774252
100.295605966501
100.297016326517
100.297368573424
100.298036267575
100.298641543236
100.299018559213
100.299362116703
100.300069578871
100.300129086563
100.299900229006
100.299392453057
100.298885736646
100.298406880769
100.298180838247
100.299005449168
100.29947164319
100.300103896581
100.300373330237
100.300896502309
100.301065736384
100.301173447816
100.301184918527
100.301064302939
100.30106332706
100.301094615818
100.301122230334
100.301140639876
100.301184355533
100.301171940847
100.301255716618
100.301258614437
100.301338096175
100.301301632955
100.301205023328
100.300948693025
100.300569913656
100.299949748226
100.299205002576
100.299138584967
100.298146614051
100.296954576673
100.29514689239
100.293152705912
100.290296787873
100.291306742326
100.292744770173
100.293813736224
100.294741050302
100.296160704945
100.296351899429
100.295664825186
100.294990165322
100.293791328315
100.293308610787
100.295149105866
100.296523260348
100.296953330683
100.2984355918
100.300042440014
100.300666373464
100.300785976233
100.300871507721
100.301085841709
100.301118412635
100.301114835708
100.301139626886
100.301169239438
100.301240975094
100.301200476622
100.301387038059
100.301395029976
100.301497509868
100.301482931572
100.301392057283
100.301124663287
100.300754439708
100.300045906216
100.299374640028
100.298223664953
100.297108852573
100.295035130527
100.294929408216
100.292714771394
100.289545585547
100.285611829731
100.280341708215
100.260577695446
100.27074160517
100.281491026684
100.282607064193
100.286954106255
100.288196968368
100.283363003271
100.287142859434
100.289487619211
100.291272458647
100.292881806942
100.293840677984
100.295104347766
100.295219706535
100.294446734453
100.292977389963
100.291567922054
100.290102555894
100.289805852306
100.29219966307
100.294255066276
100.295184120714
100.297212172886
100.298453220204
100.300458071808
100.300881036482
100.300867966843
100.30094742683
100.30109383538
100.301059633491
100.301065763908
100.301066348181
100.301069151997
100.301080094869
100.301130260141
100.301144972647
100.301146877942
100.301171629067
100.301245735529
100.301201989733
100.301395218841
100.301407254804
100.301516467969
100.301506158943
100.301433915792
100.301137316452
100.30080999494
100.300041787394
100.299399968286
100.298234526039
100.297113558601
100.295040345957
100.292542119808
100.28933506869
100.289278381966
100.284792445635
100.279366354221
100.254766376812
100.225586116306
100.164903571526
100.183208107452
100.189129547204
100.19280911314
100.192393746619
100.19919200687
100.196505184411
100.192893636286
100.198294699735
100.202911666592
100.201168388197
100.196867853382
100.205641621471
100.201062785224
100.201428795407
100.208776123469
100.202290958186
100.20121671023
100.209207354051
100.204818225613
100.198332362911
100.20742166607
100.204021464573
100.196974688761
100.205633843185
100.202534280798
100.194973055324
100.205774981557
100.207155307045
100.204600254195
100.203848773304
100.201853161725
100.200334159363
100.199867826523
100.199990440538
100.199937584024
100.20030965952
100.20059841801
100.200607075722
100.200261940056
100.200484267765
100.200647746709
100.200718924904
100.200514112118
100.200380935827
100.200778841179
100.200474641761
100.200321288596
100.200260913517
100.200496619848
100.200604468021
100.19989264264
100.199901631456
100.200562849323
100.200466139472
100.20022439358
100.200333003021
100.200479970883
100.20078507913
100.200380626662
100.200515627198
100.200719235984
100.200648434189
100.200486354291
100.200265284295
100.200610102053
100.200602252516
100.200313492191
100.199939900037
100.199987279411
100.199868542719
100.200338367489
100.201312983915
100.202332701053
100.202353514396
100.201304173046
100.201782134594
100.2027185022
100.202727980656
100.201803640052
100.201863630523
100.201695006954
100.201271523398
100.201883323754
100.202092002648
100.200733499772
100.201240930579
100.200978016945
100.201146600007
100.201589064199
100.200678460207
100.20133144101
100.201855854047
100.201971495592
100.202547876518
100.200777070486
100.20174238188
100.201125401827
100.201029562924
100.200604046569
100.201168020405
100.202975370786
100.201661958524
100.200376161276
100.201593818498
100.201577037698
100.20035202257
100.201148571703
100.200599700926
100.201023418591
100.201131964982
100.201741782559
100.20076987774
100.202551571841
100.201967284754
100.201850109386
100.201328534999
100.200672278679
100.201585776833
100.201143871611
100.200972834666
100.201236729311
100.200726114198
100.202089361746
100.201884532854
100.201271813575
100.201687527703
100.203701911564
100.203130266276
100.20397786422
100.201517116631
100.200083772081
100.203953978546
100.203148061048
100.202581331085
100.203235818969
100.20196927059
100.202875693548
100.200272580425
100.2059413202
100.205214050735
100.205558815176
100.202010994301
100.201172380817
100.201160788833
100.201998271659
100.203839915227
100.203711040201
100.203137923528
100.203245113854
100.202589166699
100.20314959197
100.203003316242
100.201073254864
100.20202423546
100.203207954006
100.204213651594
100.20236527594
100.202697051954
100.20350848607
100.204540380902
100.202064483373
100.201488027214
100.201998723237
100.202083071739
100.202076257137
100.201567009771
100.201844004115
100.202619130774
100.202612423503
100.201835029463
100.201547882782
100.202072116903
100.201994907272
100.202058499185
100.204551463283
100.203505856038
100.202691282565
100.202354520134
100.204221685279
100.203222537101
100.202030601335
100.201069335681
100.20301208399
100.202204835989
100.200972768736
100.201777898882
100.201532728213
100.202537713223
100.200980261987
100.200576105516
100.202804755446
100.203124990918
100.203344408846
100.202943448912
100.204036666624
100.202207206137
100.201738213852
100.203967022973
100.205037643598
100.205150795037
100.203980629474
100.204839324607
100.201390363862
100.202488670781
100.204497665572
100.203730967308
100.205370399475
100.20457116219
100.205572590516
100.204672124566
100.201186012123
100.202047840606
100.201468954313
100.199645458364
100.193331335712
100.193827101127
100.187901918256
100.191366633985
100.178546189274
100.172681094519
100.17628512283
100.182234263666
100.162528844017
100.236071615623
100.258487697552
100.222275988354
100.250794062939
100.27016166658
100.278149199827
100.28379646342
100.283724706507
100.278980918798
100.272159662454
100.279723618738
100.283717519499
100.286495570026
100.288735870146
100.28676748192
100.289903835233
100.291479800194
100.292937047045
100.293961160531
100.293836880624
100.292313613222
100.290954451726
100.290610431334
100.292093757352
100.293362229641
100.293959593465
100.294885453527
100.292991525853
100.294443230345
100.29293767016
100.292189511111
100.292034740496
100.292106776312
100.292598695353
100.291492176204
100.291338345311
100.291613564055
100.292656618291
100.29081417418
100.293803745823
100.293852030489
100.294512305444
100.295515353451
100.297375236223
100.296693255178
100.295760392315
100.294898649291
100.293885407108
100.292876805869
100.292068780422
100.290955454223
100.293120947533
100.292106805683
100.291795827944
100.292426499441
100.291965580912
100.292677412227
100.29191785948
100.296069431647
100.296787965306
100.297260323583
100.29693984699
100.296476638332
100.296651869216
100.298755684942
100.300531783389
100.299189541103
100.298638675405
100.299116767565
100.295044070547
100.294657617429
100.295878559119
100.297477508202
100.296791460351
100.299349086073
100.297437859634
100.297815047631
100.298296927639
100.297557374039
100.296900531295
100.296169799242
100.295963956926
100.296369119582
100.295531521691
100.294433221251
100.293343311525
100.292516989609
100.292861017859
100.291789247377
100.290734899647
100.291670146785
100.290282436115
100.290449268928
100.290754347494
100.292006025067
100.293951809461
100.293928157533
100.292434091159
100.293150113269
100.292541401746
100.295515670318
100.293601840319
100.293650744808
100.294286385946
100.295450455794
100.29761218149
100.295218189679
100.297071159264
100.298084281577
100.300022093795
100.300722088611
100.301737207419
100.300768519923
100.300185081068
100.300220366093
100.301598865696
100.301182627729
100.300122797479
100.300220404613
100.297969923931
100.299403862161
100.29829454043
100.297355540578
100.298914154903
100.298232254024
100.298608582663
100.298190105709
100.298291668245
100.298012424584
100.299900935634
100.300386096626
100.301255054227
100.30172708191
100.301797719148
100.301865941742
100.301632066557
100.301660235442
100.301140688605
100.300748999696
100.300161410445
100.299405890459
100.298478183973
100.297346118177
100.29639653431
100.295731085645
100.295460198881
100.296336124522
100.29783341957
100.299736924338
100.300821870658
100.30078543413
100.300779984576
100.301130067028
100.301113979486
100.301111388308
100.301136493891
100.301186979146
100.301172574071
100.301269923705
100.301274889382
100.301366411652
100.301332363043
100.301259808273
100.300969655099
100.300634007474
100.299937867454
100.299216472058
100.2980694902
100.296947130237
100.294925824225
100.292672134316
100.289608607904
100.285727370898
100.280621022168
100.260966660699
100.255109887895
100.225844878631
100.164444609513
100.183036754625
100.189043133246
100.192755258477
100.192359062677
100.199038111338
100.201032515374
100.196808628555
100.205667546255
100.201012370203
100.201404703832
100.208709298248
100.202275304328
100.201196998431
100.209159316084
100.204788753372
100.198322182277
100.207365944338
100.204005589912
100.196955849913
100.205609505049
100.202528273118
100.194959865977
100.205920686515
100.205185981909
100.205599573716
100.205710950024
100.204617767969
100.207178772907
100.201511563644
100.203982442442
100.201966941914
100.203956046969
100.200083255855
100.200982284636
100.202202168944
100.203314046612
100.204016447878
100.203134101997
100.202434307569
100.201060586725
100.20143517576