/*--------------------------------*- C++ -*----------------------------------*\
| =========                 |                                                 |
| \\      /  F ield         | OpenFOAM: The Open Source CFD Toolbox           |
|  \\    /   O peration     | Version:  v1612+                                |
|   \\  /    A nd           | Web:      www.OpenFOAM.com                      |
|    \\/     M anipulation  |                                                 |
\*---------------------------------------------------------------------------*/
FoamFile
{
    version     2.0;
    format      ascii;
    class       volScalarField;
    location    "0.9";
    object      p;
}
// * * * * * * * * * * * * * * * * * * * * * * * * * * * * * * * * * * * * * //

dimensions      [0 2 -2 0 0 0 0];

internalField   nonuniform List<scalar> 
80571
(
100.260112536521
100.259695523732
100.259154957716
100.26204545827
100.266504645453
100.266532505266
100.26692899073
100.267627784881
100.265457110625
100.26551191427
100.265703634042
100.265586846545
100.265697269187
100.265873801983
100.265626130512
100.26548037594
100.267644683204
100.266918823125
100.266519720185
100.266495662804
100.267202907015
100.267748908459
100.265471789312
100.265785175053
100.266044839016
100.265357016488
100.265357037548
100.266045196745
100.265785527849
100.265472438637
100.267753432765
100.267206546178
100.266497632827
100.266520706018
100.266918605285
100.267643347412
100.26548252018
100.265628068332
100.265873494377
100.26569892096
100.265588941696
100.26570555002
100.265515755457
100.265460370488
100.267627374957
100.26692887828
100.26653335616
100.266506843846
100.267216843418
100.267766416813
100.265477525706
100.265791885919
100.266054796646
100.265366897289
100.265367288563
100.266055697587
100.265792327898
100.265477041674
100.267762497678
100.267213457374
100.262460008371
100.262730529736
100.262084121343
100.261790288806
100.262152269825
100.262426507557
100.262426532684
100.262151998042
100.261789262152
100.26208402613
100.262731841609
100.262460598882
100.262046893803
100.262427672209
100.263146603199
100.263545095963
100.263597231492
100.263726437856
100.26335132538
100.263724640529
100.263787752731
100.26338108522
100.263691476822
100.263586607111
100.263549631722
100.263141619449
100.262435335295
100.262039359337
100.262455764224
100.262723424326
100.262076325514
100.261781466619
100.262143087811
100.262417804006
100.26241794166
100.262143509124
100.261781642776
100.262076289835
100.262723234478
100.26245591465
100.262038074451
100.26243450564
100.263140490176
100.263549134953
100.263584897889
100.263687405666
100.263378343034
100.263784692423
100.263721494574
100.263349027518
100.263722782622
100.263595495736
100.263544723218
100.263145259923
100.262426431336
100.25965587833
100.260682735627
100.259003027479
100.259647086916
100.259964913143
100.259708625759
100.26026413927
100.258370625206
100.258344817799
100.259366055799
100.259366290931
100.258343633773
100.258368284333
100.260263537562
100.259711778793
100.25978703197
100.259156285363
100.259655894972
100.260683795758
100.26085022709
100.262089088206
100.262300778136
100.261190443529
100.261091416159
100.261041625037
100.261098330367
100.262219324738
100.262052039098
100.260840910603
100.260678466279
100.259655717852
100.25915433493
100.259779602198
100.259701846517
100.260255316683
100.258360632713
100.258335453312
100.259358093646
100.259358171835
100.258335661912
100.258361096107
100.260255493893
100.25970104188
100.259779870267
100.259152935513
100.259655783177
100.260677357099
100.26084151922
100.262050621922
100.26221119656
100.261092700131
100.2610382895
100.261088272191
100.261183871169
100.262291870683
100.26208738944
100.260852575409
100.258992685824
100.250934362178
100.25126542172
100.251318228072
100.251511674561
100.251776657667
100.260664243255
100.259340376966
100.259507711462
100.259507106896
100.259338071191
100.260665845698
100.259966030944
100.259642182936
100.259695435728
100.259005213083
100.258987658813
100.259108932364
100.26349669813
100.260754034846
100.260683984973
100.263410016172
100.259103065449
100.258988502349
100.259018334656
100.259619687903
100.259691978026
100.260110794092
100.26095622464
100.26169785021
100.261567891936
100.262105748975
100.26434913234
100.264380399091
100.26296941892
100.261576637792
100.26058928383
100.259976812388
100.259691865884
100.259691785776
100.259976551429
100.260588785992
100.261575864307
100.26296853263
100.264818158216
100.265043022375
100.263535951426
100.261886337386
100.260672339229
100.259832152986
100.259328823196
100.259080615076
100.259080700793
100.259329097306
100.259832641675
100.260673064572
100.261887303474
100.263537312342
100.265043311276
100.264818501319
100.262875178873
100.26318136076
100.262999413808
100.262538603955
100.262312112314
100.261740259783
100.262520927169
100.262254639304
100.260747037118
100.257681976811
100.252360379643
100.250944033512
100.251265648441
100.251331954274
100.251523286525
100.251780449261
100.251780210126
100.251522550054
100.25133045236
100.251264375947
100.25094275642
100.251010804933
100.250998544087
100.249827949874
100.249692266258
100.249766526515
100.249627708393
100.24969689703
100.249758755165
100.249759058479
100.251777265791
100.251512335826
100.251319420332
100.251266732031
100.250935331781
100.250997750065
100.251010318635
100.249831349698
100.249692267319
100.249764424057
100.249641989236
100.249706396731
100.249763995462
100.24976367762
100.249705553753
100.249639765755
100.249762808573
100.249688984082
100.249829352745
100.250272848652
100.250276341495
100.250155940259
100.250196857653
100.250076174545
100.250116002708
100.250113158876
100.250113530905
100.250117042915
100.249697688813
100.249629901167
100.249768146407
100.249695417641
100.249829867969
100.250279642527
100.250276280462
100.250156894014
100.250199020258
100.250082327652
100.250119181378
100.250116621547
100.250116200895
100.250117910722
100.250079776129
100.250196466249
100.250152964924
100.249902068754
100.249949086636
100.249949249658
100.249904113803
100.249975583634
100.249915989238
100.249933657343
100.249921322366
100.249922029785
100.249935259984
100.249919280583
100.250078590607
100.250199289153
100.250159693719
100.249908613444
100.249953978087
100.24995400883
100.249907079819
100.24997748387
100.249918202866
100.249933449698
100.249920445476
100.249919709171
100.249931418794
100.249914437471
100.249973843372
100.24895395997
100.248887794324
100.248926779798
100.248926088186
100.248887538575
100.248958175049
100.248926703761
100.248941155183
100.24895103017
100.248952266456
100.248943771028
100.248931569997
100.248963557325
100.249979073945
100.250147643113
100.249083160883
100.248894292199
100.248933296708
100.248934130533
100.248895671245
100.248958931302
100.248926862739
100.248940551918
100.248948318207
100.248946952236
100.248937231271
100.248921454458
100.247696371447
100.247725925869
100.247673299635
100.247730852387
100.247731271682
100.247676302366
100.247729545093
100.247703987078
100.24770918558
100.247740154404
100.247742137837
100.247713540558
100.247711455345
100.247737439192
100.247687861807
100.247742535931
100.247741816219
100.247684700716
100.247734245305
100.247705202527
100.247707251492
100.247734935409
100.247732944399
100.247702680317
100.246368878064
100.246405633651
100.246430789584
100.246364296269
100.246453849043
100.246454609472
100.24637135422
100.246438797812
100.24641565729
100.24637946775
100.246443019309
100.246447268149
100.246385932279
100.246427582952
100.246452622523
100.24638869935
100.246471666049
100.246470061607
100.246380428386
100.246446440695
100.246416651577
100.246374608015
100.246434040265
100.246430555277
100.244825626961
100.244662783277
100.244791984605
100.244813822184
100.244682339858
100.244868068877
100.244867177915
100.244690972042
100.244828767637
100.244808712306
100.244682304576
100.244843180561
100.244858519286
100.244690759485
100.244826882942
100.244852053351
100.244717531289
100.244892978444
100.244890986327
100.244703131915
100.244836795165
100.244807112652
100.244672846373
100.244831893526
100.242521876318
100.242511497347
100.242063665109
100.242380818598
100.242404794343
100.242121264041
100.242569325843
100.242565208386
100.242127868597
100.242426431275
100.242409645888
100.242094428032
100.242545459081
100.242552475492
100.242109045693
100.242434149462
100.242463141486
100.242168714666
100.242605509774
100.242601843797
100.242146142072
100.242437957318
100.242406971036
100.242080340357
100.237153123109
100.238406605655
100.238390020625
100.23712213049
100.237970657438
100.237987796548
100.237242117052
100.238514171029
100.238496482769
100.237237913571
100.238027610644
100.238019768701
100.237178741944
100.238447032567
100.238455055771
100.237199405225
100.238055159845
100.238086271405
100.237304406302
100.238563935009
100.238556150652
100.237265739945
100.238042033267
100.238008169542
100.231417724494
100.229504794413
100.232362415387
100.232340158908
100.229447331321
100.231351615738
100.231367241896
100.229766735628
100.23263782911
100.232554690005
100.229657478449
100.23145047211
100.231439600071
100.229545974736
100.232429482957
100.232433118
100.229568701571
100.231507110521
100.231544524315
100.22976593201
100.232663614915
100.232659158373
100.229733700676
100.231461773305
100.240362413355
100.240391657349
100.238526111798
100.240931273958
100.240935907083
100.238647580519
100.240235512811
100.240185225155
100.23876002532
100.241088611536
100.241272579221
100.23875428295
100.240450411917
100.240397200468
100.23880722364
100.241027585729
100.240993006228
100.238597644291
100.240572278751
100.240587105717
100.238922722196
100.24147818597
100.241511240771
100.239252538711
100.275967061198
100.27054283169
100.270811007226
100.275787599642
100.271572826881
100.271591821167
100.275793864466
100.270727828213
100.270385640342
100.275736672343
100.271844074824
100.271939317602
100.275971094239
100.270590691825
100.270877263583
100.275855064473
100.27161867483
100.271633340145
100.275906295218
100.271006642634
100.270741282151
100.276190167451
100.27218391707
100.272098497344
100.310243639658
100.327064343562
100.315736493024
100.325923765243
100.308500689571
100.325062104803
100.314658645278
100.326405361817
100.309001352011
100.309073486269
100.326498269556
100.314715929748
100.324992150043
100.325814108999
100.315628025966
100.326914148048
100.343660463708
100.343823439707
100.327120319322
100.310142901293
100.310061292816
100.357013586533
100.386250248067
100.373548501708
100.373854845266
100.383110924315
100.372344870143
100.360172015709
100.315896509331
100.326194364676
100.325160964755
100.308630413776
100.363402942287
100.384303880793
100.365145104315
100.364683292961
100.371202725709
100.380397538309
100.357913034553
100.314677183974
100.326398144216
100.34281128297
100.308993811392
100.309022097299
100.326467883339
100.314769222976
100.325282728546
100.30877964696
100.326349233281
100.316106209573
100.327337480434
100.310382686807
100.344155453632
100.343992845767
100.373978273614
100.382510522552
100.35974934801
100.371883176945
100.364744608391
100.364579482886
100.371176517804
100.358001882136
100.380617128202
100.371420312944
100.371478265704
100.380696329848
100.371168691931
100.364496378599
100.364643364863
100.371727571812
100.382270477214
100.399478415799
100.402340225128
100.40789983072
100.407954994366
100.402893983404
100.394820685838
100.394457128295
100.409197711079
100.415109477397
100.413997460541
100.41406813069
100.413511569099
100.412570182657
100.410880282596
100.400396441827
100.404375722333
100.402364975678
100.392434584268
100.412577895146
100.414025470581
100.413039418225
100.410710625397
100.41066919864
100.411011555096
100.401632471222
100.391224038317
100.402339968783
100.410636173815
100.412546465429
100.415828335012
100.416373187124
100.416285193496
100.416917147953
100.417211145659
100.417260021379
100.417309410284
100.417368238403
100.417427173593
100.417485409722
100.417542020404
100.417591576383
100.417633168622
100.417678766958
100.417761365324
100.417976693895
100.418536972317
100.419973022387
100.422867610646
100.428777711966
100.437717584169
100.454510916473
100.446547419838
100.400505578259
100.356838873943
100.31084233957
100.286167664151
100.301248216384
100.302043385587
100.299858568629
100.299617321506
100.300535697957
100.301642420448
100.30281842505
100.304200826194
100.30574245586
100.307226429534
100.308426072162
100.309226046877
100.309586115045
100.30887949442
100.307959715287
100.306846735519
100.305533316431
100.303957072036
100.302160942539
100.300346780826
100.298720096798
100.297427753964
100.296485279051
100.295852319862
100.295429470043
100.295129190074
100.294905281171
100.294741624451
100.294671472028
100.294736120476
100.295061705084
100.29579392171
100.29710241595
100.299002660673
100.300465413863
100.30082232999
100.300932159152
100.300960661926
100.301003221045
100.301003608009
100.3010425739
100.301070541852
100.301055570338
100.301049361794
100.300993075053
100.300874880419
100.300718714841
100.30087747025
100.301084366554
100.301228841671
100.301161193623
100.300979777455
100.301034785637
100.301056359177
100.301052753684
100.301053124592
100.301080149697
100.301062313487
100.301016277944
100.301028040089
100.300987443905
100.300976816437
100.300939898385
100.300787289495
100.300668548694
100.300864862073
100.300957734312
100.300988075689
100.301006848316
100.30102288451
100.301073089464
100.301064633621
100.301057508268
100.30108332599
100.301112958129
100.301238752665
100.301216507541
100.301353355715
100.30141276518
100.301374762946
100.301263228793
100.301125277292
100.301072512539
100.301093672839
100.301088098824
100.30104478234
100.301031915111
100.301013929344
100.300996745095
100.30085347457
100.300865090963
100.301015513195
100.301052208817
100.301051645187
100.301062500663
100.301075714551
100.301109946832
100.301150132003
100.30115433929
100.301160701443
100.301164440593
100.301378358685
100.301545660329
100.301609069165
100.30157389951
100.301446468075
100.301640303562
100.301680490681
100.301807183595
100.301875185881
100.301843998063
100.301712500227
100.30162103611
100.3014534123
100.301202315749
100.301197013594
100.301164787001
100.301122272615
100.30108865735
100.301085888619
100.30109138579
100.301031080635
100.301074660424
100.300845591277
100.300679576303
100.300965917421
100.301072354261
100.301077244333
100.301121315158
100.301151720734
100.301147877047
100.301202938447
100.301206292205
100.301222300985
100.301263098073
100.301280319049
100.301532021088
100.301704745252
100.301792659646
100.301782441631
100.301799091265
100.301654149482
100.30163509044
100.301437179794
100.301373080576
100.301308434545
100.301274838991
100.301213883505
100.301157517554
100.301184815531
100.301193292058
100.301131613621
100.301132231703
100.300935496509
100.301002708824
100.301113212766
100.301193326621
100.301203355875
100.301240318723
100.301237658209
100.301300269419
100.301353900322
100.301410418505
100.301461664541
100.301694255066
100.301872420842
100.301987644897
100.302010491169
100.30188326699
100.302023478388
100.302004771293
100.302060961562
100.302119396879
100.302085988842
100.302029542808
100.301875880052
100.301704896105
100.301488890946
100.301456175654
100.30144417042
100.301376633851
100.301403406887
100.301314925029
100.301272452282
100.301278995628
100.301104348814
100.301235770039
100.301325814076
100.301367251649
100.301338586414
100.301412182738
100.301424349284
100.301457951719
100.301457413613
100.301518526642
100.301538659726
100.301753767799
100.30192118576
100.302026195369
100.302039049533
100.302035902176
100.30186106636
100.301844642854
100.301643540003
100.301575551822
100.301507542212
100.301499229959
100.301463948674
100.301466846591
100.301478527126
100.301431608468
100.301362295558
100.301439783281
100.301150865981
100.301327337668
100.301379197745
100.301464299915
100.301438665716
100.30148627904
100.30152152339
100.301555072032
100.30153702364
100.301601757102
100.301587502713
100.301662993447
100.301938307114
100.302120775912
100.302235409117
100.302219026901
100.302266199806
100.302325708311
100.302291197679
100.302139807501
100.301960381082
100.301739626804
100.301697118528
100.301597547991
100.301598917801
100.301629383927
100.30155328731
100.301574609576
100.301617451308
100.301550496027
100.30158678303
100.301522057048
100.301323846303
100.301541921946
100.301524649681
100.301562193386
100.301636129006
100.30161231956
100.301722286283
100.301656477508
100.301748856551
100.301732691615
100.301772933086
100.301886157151
100.302073907138
100.302257798394
100.302263989462
100.302229539103
100.30206675208
100.302116726269
100.302290047072
100.302433317992
100.302355196626
100.302472416976
100.302351265714
100.302369356829
100.302368428576
100.302194191683
100.301984375173
100.301854424017
100.30181324247
100.301734129927
100.301718827959
100.301751700459
100.301690134322
100.301697756946
100.301701876258
100.30167752912
100.301633005413
100.301659756357
100.301655235393
100.301339876639
100.301694926239
100.301575570893
100.301492707204
100.301705823478
100.301679660304
100.301724634591
100.301756224283
100.30173123602
100.301789687565
100.301784255328
100.301900976848
100.301985411442
100.302016680266
100.302254675317
100.302430911763
100.302610389815
100.302540682761
100.302673614769
100.302597007721
100.302608232585
100.302580939765
100.30237309644
100.302142180931
100.302059419066
100.301917499463
100.301893087415
100.301911160477
100.301809195486
100.301857620899
100.301779549273
100.301740271128
100.301773243837
100.301692055795
100.301693673953
100.301768337839
100.301390618102
100.300587112973
100.301383484544
100.300821672816
100.29998881656
100.300905155872
100.300367442274
100.299654794234
100.298803230501
100.300134212419
100.299625369523
100.29795083937
100.296471636581
100.295458201975
100.294906729528
100.294682142364
100.294653119211
100.294752201139
100.294939099938
100.295216746561
100.295620624418
100.296219930166
100.297095000852
100.298291061409
100.299811961881
100.301531700355
100.303264478321
100.304827955399
100.306158283612
100.307292895406
100.308240653594
100.308974511787
100.309532738767
100.310117675159
100.310508376205
100.309998247475
100.309311174651
100.308408523941
100.30729582124
100.305972361272
100.304383417798
100.302566805131
100.300718203139
100.299037021562
100.297678483543
100.29668994634
100.296035021171
100.295602983356
100.29530650736
100.295080045749
100.294894372825
100.294775489559
100.294752738877
100.294917034071
100.295369621776
100.296340985188
100.298167550039
100.300064796853
100.300773954304
100.300913792504
100.300963975478
100.300995811476
100.301027404112
100.301065715464
100.301091669388
100.301096893916
100.301105002551
100.301026279737
100.300849097713
100.300553272611
100.300638698354
100.300340393948
100.2998980833
100.299284306941
100.299693422627
100.300132601321
100.300590173757
100.300485797699
100.300164013929
100.300516680245
100.300750216225
100.30099997633
100.30081461842
100.301046533791
100.301224140831
100.300827073191
100.300336611667
100.300688904044
100.300896849326
100.301180178288
100.301578967987
100.301526692991
100.301342115463
100.301101565297
100.301002667812
100.301123616682
100.301267910228
100.30119254597
100.301104895804
100.300910646664
100.301074494395
100.301029108946
100.301005013493
100.300942972558
100.300911865552
100.300896721332
100.30091063454
100.300929804268
100.300965523773
100.30099873904
100.301016615693
100.30105092206
100.301076655001
100.301064550941
100.301062662522
100.300987827132
100.300838965128
100.300731922173
100.300902783773
100.301041746695
100.301063451672
100.301079117747
100.301087496697
100.301103834405
100.301069351614
100.30113046134
100.301116913432
100.3011268105
100.30105168257
100.300890863635
100.300625511971
100.300211066978
100.300687910374
100.300209192696
100.299778474547
100.299067605841
100.29808002097
100.297035773968
100.295555223311
100.296911161857
100.29730397687
100.298012295861
100.298648771353
100.299021547505
100.299350690352
100.300065223871
100.300150431783
100.299937489028
100.29941430096
100.298845597839
100.298296089785
100.298066839429
100.298783388386
100.299228962441
100.299868820196
100.3001916899
100.300733203322
100.300926628017
100.301055477003
100.301061718184
100.300925761566
100.300922956133
100.300940427362
100.300991646565
100.301051956126
100.301152323437
100.301113705626
100.301228378434
100.3012032153
100.301233868856
100.301141160337
100.300985691641
100.300681120371
100.300283481686
100.299684085508
100.298937586081
100.298945036466
100.297936496617
100.296758923659
100.295038787715
100.293022076213
100.290256029274
100.291330579389
100.292763382907
100.293798667107
100.294697379059
100.29610115231
100.2963392216
100.29567169705
100.295024499633
100.293711875087
100.293203301467
100.29497296167
100.296341390223
100.296867323016
100.298329690049
100.29986222434
100.300490809414
100.300596771099
100.300661198018
100.300895894193
100.30095668895
100.301025752186
100.301074864712
100.30116090104
100.301238759627
100.301158575583
100.301326714523
100.301285710078
100.301311599203
100.301220660649
100.301055942535
100.300732786175
100.300339964906
100.299668388312
100.298935561354
100.297857092368
100.29669615256
100.294652046339
100.29471990551
100.29253942995
100.289336816968
100.285395439974
100.280025207088
100.260323271951
100.270889038415
100.281535754649
100.282527651793
100.286834220763
100.288183937282
100.283476444768
100.287197016316
100.289473827454
100.291198370218
100.292757575471
100.293680226962
100.294922904178
100.295094276742
100.294362476131
100.292926460874
100.291569791549
100.290109818672
100.289820518488
100.292181555858
100.294173917152
100.295102501499
100.297065670159
100.298331231696
100.300326504364
100.300756758862
100.300706905152
100.30077282306
100.300928010423
100.300891165037
100.300894234844
100.300882872201
100.30092396547
100.300967435211
100.300998418024
100.301109864052
100.301116030313
100.301167507199
100.301241981733
100.301157713793
100.301328449598
100.301286841097
100.30131492195
100.301220351176
100.301071369272
100.300718754967
100.300362128496
100.299639932478
100.298926675258
100.297846885898
100.29667970498
100.29463060712
100.292258388625
100.289009063634
100.288966493949
100.284507887871
100.278863622665
100.254454851563
100.225988243923
100.165225770616
100.183385742736
100.189447933973
100.193111384849
100.192678032946
100.199316465383
100.196636048037
100.19284848359
100.197857576591
100.20276651688
100.201226638862
100.196940974946
100.205470612637
100.201056202084
100.201347967198
100.20854922387
100.202242678518
100.201229966513
100.209151898038
100.204764413319
100.198239379109
100.207345010479
100.203985648887
100.196912620185
100.205585495326
100.202514554139
100.194958315977
100.20560207227
100.207015667865
100.204482362307
100.203781607724
100.201816519051
100.200323775699
100.199859651894
100.199985542941
100.199924086308
100.200301183652
100.200599202753
100.200606434258
100.200257046141
100.200483133965
100.200648017842
100.200722091654
100.200514334217
100.20037898544
100.200776881349
100.200472482499
100.200319185298
100.200256081794
100.200497027933
100.200600660259
100.199889215574
100.199898022226
100.200559967161
100.200466899438
100.200219486092
100.200330645154
100.200477053643
100.200782381535
100.200377702916
100.200515162297
100.200722084985
100.200648136263
100.200484865322
100.200260063121
100.200608814828
100.200602368642
100.20030426024
100.199925750319
100.199982298978
100.199859652063
100.200328640822
100.20129031112
100.202303598798
100.202323924133
100.201282164334
100.201754244606
100.202690792109
100.20270084573
100.201772592208
100.201828656986
100.201695973591
100.201287603642
100.201879941418
100.202081107368
100.200733155279
100.201245135313
100.200989927502
100.201157407955
100.201601692209
100.200683606686
100.201334285227
100.201867168611
100.201977745518
100.202559054846
100.200773328555
100.201732603369
100.201111365829
100.201025991795
100.200596633665
100.201164876282
100.202956728372
100.201651604239
100.200353755819
100.201573607563
100.201557653142
100.200333846463
100.20114931275
100.200593468857
100.20101935602
100.201118219122
100.201732290493
100.200767558955
100.202561767863
100.201973193991
100.201861126289
100.201331628182
100.200677217569
100.201598703899
100.20115524524
100.200985351809
100.201241396798
100.200725661851
100.202080902478
100.201881408281
100.201287177678
100.201687686002
100.203670228384
100.203129208168
100.203922858688
100.20146551306
100.20008031321
100.203901391193
100.20312024986
100.202568593377
100.203204984879
100.202029893468
100.202903315862
100.200267759393
100.205904683795
100.205175806629
100.20551337042
100.202006091544
100.201167917357
100.201156104634
100.201994445304
100.203773914471
100.203677674873
100.203135397378
100.203212232624
100.202575208043
100.203119441623
100.202970949388
100.201076258703
100.202028320109
100.203208351487
100.204210228238
100.202375994845
100.202699928807
100.203521141536
100.20453128487
100.20206535305
100.201490449201
100.202007532415
100.202101334055
100.202089091941
100.201568464582
100.201846185062
100.20260252066
100.20259650243
100.201835073092
100.201551285925
100.202091435142
100.202004856911
100.202060546814
100.204544133593
100.203519060122
100.202695445649
100.202365963105
100.204223533315
100.203227295107
100.202037919713
100.201074254211
100.202984453014
100.202207471579
100.200959434447
100.201688288686
100.201549219636
100.202498274448
100.200972726389
100.200632597327
100.202835438684
100.20307886333
100.203276365776
100.202993183014
100.204007062288
100.202238193654
100.201849748635
100.203996663635
100.204958927463
100.205080840536
100.204058781681
100.204876034912
100.201502618977
100.202639038606
100.204552273413
100.203777689012
100.205316816083
100.204663626763
100.205635211838
100.204663553378
100.201533965101
100.202182902041
100.201700822546
100.199884219092
100.19406531653
100.19418082717
100.1883952408
100.191958474764
100.17923234837
100.172388415037
100.175472443762
100.181815951267
100.162178497445
100.235756892459
100.25871749949
100.222046854563
100.25102650065
100.270272996624
100.278189272067
100.283784991028
100.283763270489
100.279108163013
100.27245901905
100.279834547408
100.283756846657
100.286495573961
100.288668691681
100.286692793507
100.289740050327
100.291272428371
100.292704671852
100.293726682784
100.293636435414
100.292140675469
100.290814240668
100.290447115902
100.291958975558
100.293224334898
100.293834503237
100.294743453404
100.293014848925
100.294327546315
100.292722538871
100.292065817903
100.292032830605
100.292290861246
100.292720063497
100.291641448091
100.29132837641
100.291418026068
100.292546273708
100.290776203847
100.293827236844
100.293559224207
100.29420997641
100.295248635626
100.297109467429
100.296446734856
100.295521643013
100.294635889979
100.293627568199
100.292648222815
100.291924915755
100.290869994452
100.293031224587
100.292119075467
100.291980349393
100.292876170692
100.292429089493
100.292916777646
100.292297525454
100.296458505288
100.297054144124
100.297262607308
100.296853387141
100.296300832298
100.296457031863
100.29850891661
100.300231098791
100.298834647814
100.298356005407
100.298834320044
100.294791276257
100.2943932449
100.295697606156
100.297282051853
100.296651628486
100.29915330004
100.297245533395
100.297611112129
100.29809041778
100.297339592017
100.296674645592
100.295914234165
100.295711137098
100.296115866795
100.295269955053
100.294174222019
100.293103713225
100.292304076624
100.292626136771
100.291570934226
100.290570070782
100.291493290959
100.290197938508
100.290444280557
100.290859569401
100.292195858438
100.293771040466
100.294255003027
100.292951358955
100.293194405173
100.292727131917
100.295951693803
100.293360786412
100.293548136297
100.294353564618
100.2956227997
100.297603877807
100.295343882261
100.297009122018
100.297856148694
100.299674829969
100.300406391909
100.301480495845
100.300531118293
100.29996413833
100.300010178524
100.301355200143
100.300975878158
100.29994315798
100.300029000984
100.297825967125
100.29924395726
100.298146106712
100.297228920555
100.298743624898
100.298063465374
100.298440567613
100.297997882892
100.298110705331
100.297848124264
100.299705558527
100.300182429491
100.301071062408
100.301523622395
100.301594432479
100.30167147071
100.301434305358
100.301473539584
100.300936769465
100.300553121479
100.299981536351
100.299271920547
100.298426948377
100.297371721029
100.296310333264
100.295366088669
100.294852939884
100.295926947043
100.297534008925
100.299493769244
100.300608043333
100.300576909979
100.300574118857
100.301001667352
100.300958946305
100.301031959021
100.301080879789
100.301157964614
100.301114599708
100.301238488592
100.301207594856
100.301238504518
100.30114019768
100.301002959837
100.300665945359
100.300315496103
100.299653599091
100.29891195206
100.29783871122
100.296635290624
100.294675089168
100.292500369845
100.289372074204
100.285475922373
100.28024141009
100.260659829304
100.254793676101
100.226311020877
100.164822099944
100.183241069872
100.189401582603
100.19306614933
100.192644678678
100.199093660526
100.20103276152
100.196813241181
100.205446495188
100.201001073342
100.201303491713
100.208462188795
100.202231029104
100.201205049073
100.209095784081
100.204729460313
100.198233109678
100.207289788243
100.203972584226
100.196900011604
100.205565501577
100.202510975662
100.194950894733
100.205885296861
100.205149013851
100.205552680488
100.205619510784
100.204497537285
100.207035855848
100.201458386153
100.203924000843
100.201974418377
100.20389941283
100.200081241808
100.200965330148
100.202202271393
100.203313032509
100.203988107423
100.203133411177
100.202450851664
100.201069852646
100.201463046603