/*--------------------------------*- C++ -*----------------------------------*\
| =========                 |                                                 |
| \\      /  F ield         | OpenFOAM: The Open Source CFD Toolbox           |
|  \\    /   O peration     | Version:  v1612+                                |
|   \\  /    A nd           | Web:      www.OpenFOAM.com                      |
|    \\/     M anipulation  |                                                 |
\*---------------------------------------------------------------------------*/
FoamFile
{
    version     2.0;
    format      ascii;
    class       volScalarField;
    location    "0";
    object      p;
}
// * * * * * * * * * * * * * * * * * * * * * * * * * * * * * * * * * * * * * //

dimensions      [0 2 -2 0 0 0 0];

internalField   nonuniform List<scalar> 
87341
(
99.6409625750689
99.634347781249
99.6206453905386
99.5926450939365
99.5966833654956
99.6025118539407
99.6121215152878
99.5948081434744
99.5786623236745
99.5785651177277
99.5955444228849
99.6138671838152
99.6049987749824
99.5999075141188
99.5924305079148
99.5887663420925
99.5917026877917
99.5996458950674
99.618652953201
99.6277852978239
99.6262102792917
99.6144396500179
99.5953815766943
99.5868572216738
99.583253137626
99.5859593896842
99.5894501688151
99.5780301075603
99.574334807955
99.5813401672444
99.5810853613889
99.5738613032868
99.5776100357536
99.5892169400048
99.5856538091069
99.5831963139192
99.5870919573462
99.5956192151962
99.6145557300926
99.6258573269457
99.6275818124275
99.6182058178418
99.598548794471
99.5895020305439
99.5847990608353
99.5877484239858
99.5891044119231
99.5835763896093
99.5832937170293
99.5893601263411
99.622636451896
99.6320519709553
99.6298528614773
99.6169300157763
99.5825302435139
99.5768736596758
99.5771747653894
99.5833434025126
99.5892837375257
99.5693052279183
99.5568468866205
99.5806212324951
99.5809417918628
99.5577082914511
99.5701168448654
99.5895185225622
99.5836642223442
99.5772697041846
99.5766336740845
99.5824447219237
99.6170117127602
99.6302297315986
99.6325267715175
99.6233207828427
99.5904670536872
99.585486027068
99.586149096243
99.5926715567523
99.596009519983
99.5999466113946
99.6176487068621
99.5831595375085
99.5443071722276
99.5435480842198
99.5819831660604
99.6163997827436
99.5974704123559
99.6220792646741
99.6253813575529
99.6258615792843
99.6148994108435
99.6203995250519
99.6257893818391
99.6181997784141
99.6142132815053
99.6165574168354
99.6298641529606
99.6331640502296
99.6309540871785
99.6225406557439
99.6062776539872
99.6031090862414
99.607532269955
99.6055388023996
99.5986655373087
99.5867174326863
99.5735903819404
99.5883667481502
99.5885150987825
99.5741477703748
99.5871635514709
99.5988351708788
99.6056995805021
99.6077829809487
99.6033489960425
99.6065055909801
99.6228807062483
99.6313023121084
99.6338377363623
99.6314240602259
99.6179752655832
99.6157386443327
99.6192728629418
99.6217363680517
99.6221169274484
99.6231934547747
99.6258657890233
99.6032624657575
99.5738056755245
99.5735044026449
99.6024518809697
99.608744140076
99.6135105806382
99.6143848813012
99.6146600599796
99.6143266528949
99.6145410927275
99.6132233835524
99.614563018704
99.6141912489691
99.6178897577713
99.6283947404574
99.6269193892808
99.6251835659571
99.6227053441641
99.6223067866841
99.6243554523869
99.6176301400102
99.6227041883814
99.5949399556509
99.6018321929905
99.6017216962883
99.5951472348716
99.6223932738458
99.6175497533102
99.6245240203602
99.6178082205389
99.6185359621172
99.6262606124574
99.6205687367633
99.6130005580667
99.6159779763992
99.6145975186845
99.6144576057834
99.61587269195
99.6163065553969
99.6149877055567
99.6160201060671
99.6145466462164
99.6174651898962
99.617927193037
99.6115567051242
99.6158410229463
99.6232620987511
99.6224693692587
99.6233197323961
99.6186170660909
99.6159818680709
99.6176701606787
99.6205222268696
99.6205452084315
99.6176176053826
99.6158656797773
99.6144373099923
99.6141920818034
99.6148125931183
99.6163161148234
99.621471602128
99.6215025053212
99.6209195267328
99.6208599788414
99.6214046930079
99.6215788502362
99.6217790311575
99.6279120062632
99.6283530963656
99.6284539009511
99.6284576118396
99.6235857390785
99.6199341986079
99.6205285024633
99.6206107410849
99.6199942366318
99.6185018289133
99.6158475900199
99.6146326839673
99.6218024553839
99.6280976470704
99.627315372399
99.6269499275157
99.6269005325083
99.6268898527454
99.6269837549565
99.6272785786643
99.6334382888518
99.6340087158629
99.6342547091245
99.6341088572148
99.6340941178622
99.6342018184874
99.6283980340219
99.6231355276597
99.6231685162922
99.6237174823954
99.6235005849917
99.6225940673457
99.6285916189952
99.6344752438602
99.6342124422011
99.6335870648512
99.6332763128468
99.6333177173515
99.6332961916767
99.6332032379278
99.6392740978165
99.6394789134118
99.6399791463104
99.6402021163784
99.6401087272804
99.6400750397835
99.6402034470775
99.6402618989078
99.6342397058605
99.6284119770682
99.6285732907948
99.6286855535113
99.6342927888865
99.6402738356907
99.6404195052629
99.6401968491453
99.6396584281714
99.6393979018926
99.6394459956059
99.6394096923129
99.64496479422
99.6448878841465
99.6451300973791
99.6457331014323
99.646134493157
99.6462693873077
99.6464012575798
99.6466224989827
99.6466881893463
99.6465728417804
99.6401980928123
99.6342177599927
99.6346134631147
99.6406089917571
99.6468371558209
99.6464759042515
99.6463883702676
99.6459795258865
99.6453109874736
99.6450042448895
99.645008598301
99.6504091809272
99.6504043176141
99.6506167581306
99.650877149971
99.6514453123573
99.6521434864559
99.6529798922781
99.6534794066842
99.6536598751616
99.6536838191862
99.6536866488185
99.6532645500159
99.6524039705089
99.6516615845841
99.6509766806094
99.6507015405467
99.6576610536224
99.6569712688246
99.6569924846252
99.6576766302032
99.6579834540209
99.6580722815519
99.6591109991461
99.6609339184462
99.6618884382961
99.6617148372942
99.6617339495511
99.6619780258696
99.6611867351308
99.6591947497979
99.6580719427178
99.6578844215513
99.6652330003905
99.6641370062966
99.6648914423965
99.6649996075426
99.6646113831188
99.6652960153225
99.6654898328519
99.667240813599
99.6694084986504
99.6720777787956
99.6733341682032
99.6734427689491
99.6720402905643
99.6691931611374
99.66708990157
99.6651510307204
99.6820056105041
99.6748288640699
99.6716351213375
99.6851878275563
99.686124284606
99.6719237214488
99.6749369401312
99.6820288623301
99.6835158841359
99.6803154682367
99.6861736919804
99.6930961866452
99.6930689389222
99.6858957735811
99.6799228342707
99.6832469829171
99.6746011057861
99.6772221201751
99.6781245702836
99.694167203779
99.7092641133086
99.7026374431847
99.7041919204839
99.7144133908852
99.7142673997773
99.7002026051305
99.7092225015718
99.7150630422131
99.7139414573946
99.7073976148112
99.6935042373325
99.6940261085273
99.6757067626389
99.6770133939049
99.6987530842582
99.709022429147
99.7178184934005
99.7183211433321
99.7188447237135
99.7209637475851
99.7210205069446
99.7205381830274
99.7198923340288
99.7178731310821
99.717475192057
99.7164506486661
99.7143082770461
99.6990468504054
99.7137240382948
99.6984575494411
99.6760572188273
99.6767458768378
99.7037273374016
99.7243066738352
99.7154443096005
99.7221228728662
99.7458170860946
99.7892551836192
99.8371063057888
99.8928849007543
99.9460942957435
100.001365073583
100.049983952198
100.091261517703
100.143036820595
100.182434878211
100.17922546018
100.183473920199
100.195562252051
100.18683431418
100.188285948198
100.199963219312
100.185983495682
100.200306011858
100.20805186364
100.217342282749
100.212349126801
100.210989108547
100.219469890604
100.216758079761
100.202288962855
100.189939417376
100.211351331182
100.206964565632
100.203371754408
100.210473438391
100.21558546627
100.203316042006
100.209463834183
100.218992682292
100.201093537605
100.213369671644
100.230160506788
100.236805578844
100.229804746237
100.230839729726
100.237665173472
100.238064485716
100.215505174715
100.205681742749
100.218300287035
100.233797576056
100.235665668726
100.23182771027
100.23541556035
100.23793735316
100.230066806948
100.234777372356
100.243742886999
100.23042179029
100.239635408128
100.249859607904
100.254674275798
100.254041280739
100.25464960521
100.254598532853
100.249872244378
100.241079493098
100.233765828205
100.245277673401
100.253346707666
100.266031302762
100.25820220679
100.26440089769
100.2672215219
100.261794435239
100.254951033379
100.261444881435
100.276585205866
100.27582029872
100.275699519392
100.266445932027
100.264403742909
100.258089885765
100.254055364747
100.260480158148
100.260610669481
100.241549170629
100.241088394322
100.215300601709
100.21502203369
100.207690737977
100.201367131676
100.187937238181
100.202446183157
100.21533732466
100.217177285234
100.219761067659
100.214749155655
100.193449264313
100.204332966607
100.214799435087
100.213120012527
100.213661761789
100.204874325193
100.210557668223
100.21211352925
100.20537524381
100.204032424793
100.22163991729
100.23195254677
100.236828439735
100.229907345999
100.215393565394
100.234200938043
100.240284772646
100.25304407854
100.234461547243
100.245792684934
100.254834977606
100.254494842709
100.249844965704
100.241631945649
100.242522388282
100.261653000814
100.261549202902
100.254663678178
100.258272380979
100.264816849704
100.267393186543
100.27566266514
100.276192950889
100.266286868398
100.264192935948
100.257964087954
100.254040426744
100.26055313294
100.260277744923
100.240005584862
100.231706739885
100.239145780255
100.233811930366
100.222839446201
100.210194515906
100.222772537838
100.228723160857
100.219070850399
100.199204062647
100.175429637226
100.153294480006
100.118879938205
100.073384701115
100.036132925069
100.035588913822
100.073336031637
100.069552651111
100.069250753166
100.115385872876
100.15655188484
100.157190612142
100.16609730394
100.151247621743
100.155220660883
100.154298426072
100.148569225933
100.162093376
100.152148542334
100.176678317085
100.175167531129
100.153729150594
100.173183538525
100.19306168129
100.193896394827
100.185494101464
100.191472693941
100.20147187034
100.218319612742
100.218064532331
100.203847593659
100.200623873832
100.219407354061
100.229294518013
100.224980632966
100.212235882649
100.224255051432
100.235251644614
100.239936889985
100.232205923857
100.240565508123
100.244573448712
100.261123978621
100.276672017726
100.288468604459
100.288183020851
100.287793473384
100.287846980747
100.28783165788
100.27609026599
100.276025513067
100.276143943301
100.266891654546
100.257275448903
100.265418688553
100.264086176537
100.27724417084
100.288140298079
100.285707221124
100.285200532475
100.285266805751
100.276163219122
100.266856688143
100.25737550632
100.241678178327
100.246950576466
100.248946974384
100.264447596922
100.265622825667
100.276167488523
100.276099528986
100.287842455113
100.287788799203
100.287870672541
100.288285362285
100.276556395126
100.276446506829
100.260891317958
100.244512076087
100.245116856114
100.230111272147
100.21908554342
100.190957030476
100.185662867637
100.180295512666
100.16751550608
100.194166837106
100.201884112524
100.200953916694
100.192777007962
100.171009396224
100.176770127466
100.189246928006
100.180538883402
100.182308740221
100.180319955692
100.186371437682
100.18575528065
100.180103106925
100.185590681114
100.200902129673
100.217283034958
100.228448647804
100.229397403945
100.199345488012
100.218338161587
100.228946256033
100.212691250044
100.215048255861
100.216387368812
100.215736989302
100.229327512095
100.213382533419
100.223731532713
100.235193352336
100.236805472344
100.23065317027
100.225609013784
100.237284949807
100.246456504491
100.252131644583
100.258131937508
100.266801550048
100.274406711928
100.282021751631
100.286681508998
100.290567305488
100.293880412909
100.298377633748
100.300844218842
100.30376008061
100.305580960576
100.30629700375
100.306531753953
100.30684774438
100.30662667334
100.306540110443
100.306719325134
100.307753212659
100.307728680784
100.307711762383
100.307698716279
100.306552817211
100.306456173303
100.306563164625
100.306700822521
100.306778933445
100.306762496867
100.306703902365
100.306093972911
100.304538622457
100.303067520019
100.301107326775
100.299019769586
100.297549128892
100.295367858617
100.293440223303
100.290914196392
100.288072199676
100.285677815602
100.282219527821
100.279451594089
100.275888764998
100.273029265879
100.26993134375
100.26679636808
100.263338901754
100.260057945492
100.256626271424
100.253065211366
100.249995219567
100.248850199963
100.245595023222
100.242372909277
100.242380139811
100.24550329107
100.243156061071
100.243070698405
100.246807501659
100.247496227198
100.245336658796
100.244790803639
100.243914666312
100.241892763811
100.241185907802
100.241017274722
100.240845487678
100.240966789452
100.241298552124
100.243323932365
100.245554054366
100.24248295593
100.241395851298
100.243896684595
100.24649461109
100.245749664992
100.24573703634
100.24645629126
100.243843782754
100.240487667119
100.24040226756
100.240418448792
100.240530965185
100.234271428816
100.234133827525
100.234119228197
100.234219829106
100.236846271615
100.238106311432
100.235437283155
100.231643453649
100.230409560701
100.226355649512
100.221563842139
100.230089128544
100.229212683953
100.22922482764
100.230128101511
100.226406072773
100.23047809778
100.236915860552
100.238186477255
100.235518603068
100.239562436636
100.233657282494
100.236991833997
100.237412551116
100.237458361661
100.237459959392
100.237466222895
100.237164521392
100.233756504996
100.239905753876
100.235849770613
100.236607458949
100.241512112458
100.240103686107
100.235662634354
100.232083074455
100.227088203054
100.225158662976
100.222743010166
100.227901180471
100.226827450049
100.226587469665
100.226668594012
100.226728585967
100.226857178007
100.227281451728
100.228775271419
100.22440503995
100.223001479613
100.217457675542
100.212297414234
100.211525803457
100.211515748603
100.212273293192
100.217420846863
100.219027868724
100.214656956884
100.209854420071
100.207474652726
100.199349984371
100.19172378679
100.205179280781
100.203893178502
100.203898676211
100.205200629802
100.199394838598
100.207514150765
100.209906672395
100.219090527013
100.214718704133
100.220223499237
100.210999993966
100.21045704308
100.219362143928
100.21018225479
100.210239371262
100.219308649642
100.210340457761
100.210758394192
100.219536588892
100.213973614799
100.216887680306
100.211884577627
100.220110328661
100.214911220242
100.218151716506
100.223113334955
100.231058301811
100.238847412928
100.236768882986
100.236475204534
100.236155607971
100.238756150541
100.243149913265
100.244180091117
100.247237646731
100.251258457802
100.254245260842
100.258353470913
100.261082606905
100.265431861875
100.267916588924
100.27169721891
100.27138907959
100.268171217225
100.263483981086
100.260034998938
100.255877045782
100.252574008279
100.249016483725
100.245350976823
100.24115309129
100.23676098634
100.232733498332
100.23157253479
100.227118033013
100.222181953246
100.2222441265
100.222320533004
100.226460160812
100.231121988164
100.230785598406
100.231390550217
100.227821846796
100.235277256478
100.2424205277
100.248711699703
100.25630299104
100.262187254474
100.2697526157
100.275242975315
100.276004522611
100.277029424028
100.282240701256
100.283469920854
100.287630268138
100.291224362103
100.294449289687
100.295174469178
100.298290364207
100.298909235028
100.301270051802
100.301938618241
100.304170409058
100.304901527958
100.306116571858
100.306535049556
100.306647173075
100.306697020074
100.306709814195
100.306686101358
100.306617269763
100.306661950621
100.306027324211
100.304522547131
100.303089208856
100.301199698739
100.299101528389
100.297628554669
100.295414125899
100.293509529722
100.290862397798
100.287868381579
100.285552968562
100.282046857466
100.279123309977
100.275711600801
100.279330662371
100.278944081863
100.276825049125
100.281925391177
100.286432131376
100.290306187015
100.293699858278
100.294336644866
100.297389787209
100.300175245776
100.300880298637
100.301437310168
100.303563622823
100.305047478456
100.305910400798
100.306310132667
100.306546146214
100.306603419662
100.306583596099
100.306607100429
100.306584863761
100.306523987112
100.306651944119
100.306412727364
100.305364565765
100.303515779521
100.301378866729
100.299342730403
100.297536257925
100.295430336963
100.293500237665
100.291017379428
100.288023846911
100.285712365199
100.282096188173
100.278075992684
100.273987153746
100.270421896618
100.267333207902
100.263383607453
100.259785183902
100.25574537342
100.250609518987
100.247031230818
100.241471392102
100.23753172091
100.230891115297
100.225817000689
100.220767144695
100.214976483215
100.209374340302
100.207348649876
100.201622785278
100.194940282637
100.195329185527
100.195609875685
100.201961021903
100.198053880018
100.205233827505
100.201758272886
100.198147688373
100.204675915321
100.205860831459
100.206128763672
100.206013197911
100.205394579517
100.204202538237
100.197258855427
100.193731253142
100.17996634143
100.176044586655
100.174719357077
100.174689572585
100.175976244381
100.179876835831
100.188001255652
100.185933663988
100.168402321579
100.153837994448
100.140064137447
100.166377807158
100.163022479748
100.153915955708
100.153951984957
100.163103958239
100.166486833413
100.153987937679
100.16853242673
100.188073039073
100.18601753986
100.194660278904
100.185705612628
100.185516575448
100.195118620385
100.185576832221
100.185631292441
100.194938932571
100.186117862566
100.188396937112
100.177042132009
100.192616495403
100.183013742897
100.189553447821
100.181955985993
100.181481709132
100.181373799962
100.188234940164
100.196798421487
100.198624518049
100.205220228923
100.212339012635
100.21751218051
100.222765434148
100.22223068061
100.218239247566
100.209509737624
100.202868476486
100.192105737988
100.183331128522
100.174221772646
100.17045341977
100.156532923854
100.142151871543
100.141945837908
100.14271988039
100.156809785575
100.147786844948
100.162195282941
100.152601713931
100.141950874007
100.13980550899
100.139466056526
100.14001802191
100.141319048188
100.143851138413
100.126085343729
100.107858100237
100.101596918723
100.11518021311
100.131699949532
100.131687431949
100.115127416914
100.098783658872
100.098807177784
100.065439546391
100.065425875945
100.068309287146
100.084542733883
100.072471864082
100.049761619011
100.024311380642
99.9984168617356
100.041420015823
100.026750325991
100.026740374818
100.041389772496
100.068347040668
100.084627624512
100.072519990107
100.09587506083
100.128363964966
100.128397870108
100.128154573803
100.128128736113
100.124555052827
100.104212684007
100.135828695802
100.116319888376
100.128429312614
100.112870953865
100.112475374408
100.113885790873
100.119333770619
100.146480540665
100.15100338793
100.164402336864
100.177331531245
100.176277469539
100.166075814211
100.139389553041
100.120757895076
100.101763382199
100.079734992077
100.060019137428
100.056884821943
100.055317878869
100.056206649553
100.072025930889
100.055698121334
100.064507337584
100.05336910059
100.050770542549
100.052116609569
100.053426005886
100.057112877482
100.031384981861
100.006379824646
100.024221258845
100.049744136738
100.078694604586
100.112411943578
100.145268633519
100.169995983945
100.189018457373
100.201280217133
100.21063875522
100.220435643763
100.211452054394
100.190851929957
100.200408142603
100.219570607424
100.218970968573
100.204154391898
100.218006808976
100.200113879402
100.189970323136
100.201658282902
100.218294279807
100.217800096181
100.225819094501
100.212583115775
100.215224778765
100.212718842275
100.210807585319
100.212540481839
100.222373969345
100.234583294053
100.239469855591
100.238357032298
100.218208670302
100.214468564589
100.237524383475
100.237963202027
100.232394347334
100.221229424542
100.206197304487
100.233803712944
100.234899261477
100.238675278892
100.230097286587
100.23449091257
100.235846733433
100.23184013633
100.243064518969
100.229546312822
100.238934953396
100.249612891556
100.254747127223
100.253729598641
100.253046157964
100.260270603588
100.266263724957
100.272314033523
100.281379604447
100.285532689438
100.289555377999
100.293223916493
100.298401663728
100.30068713262
100.30274876448
100.304208436284
100.306045050512
100.30637871136
100.306197149482
100.30627736252
100.306351006617
100.306307086666
100.306274655507
100.306453348209
100.306592616227
100.306603358913
100.306506360648
100.306634602503
100.30656275877
100.306480274969
100.306470663677
100.306121949459
100.30612315443
100.306473808846
100.306485026083
100.306569125923
100.306095202171
100.305958228643
100.306071556524
100.305893392331
100.306076889979
100.305965271452
100.30608294638
100.306073652433
100.306094625362
100.306187197154
100.3059254089
100.305935051953
100.305876286697
100.305857215441
100.305874170306
100.306278362171
100.306474061334
100.306703329642
100.30680640696
100.306806269092
100.306702198531
100.306472175407
100.306184684901
100.306276349385
100.306604314911
100.3067530833
100.306753314052
100.30660557191
100.30595867286
100.306047393961
100.306046927638
100.305957240685
100.305871990446
100.30592271091
100.306016766129
100.306091227049
100.306069374202
100.306077883557
100.30608958464
100.306076881315
100.30631608923
100.306190065258
100.306008678799
100.305971384947
100.305841729491
100.305924468272
100.305952327469
100.30596005888
100.306030845001
100.306064996164
100.306022624641
100.305932718141
100.305855373095
100.305768812155
100.305792155806
100.305792541504
100.305769948162
100.30580151906
100.305755244441
100.305754932434
100.305800678453
100.305874800186
100.305133342892
100.304979207261
100.304844585232
100.304844728772
100.304979606323
100.305134541744
100.30544157982
100.305672209151
100.305266398207
100.304181251706
100.303712649729
100.30250075717
100.301361731452
100.303375974561
100.303278994876
100.303144767229
100.303144739121
100.30327852383
100.303374474522
100.30249947994
100.30371021761
100.305439225671
100.305668244817
100.305261876395
100.305888112855
100.306071950943
100.306065828936
100.306058871038
100.30611199724
100.306119984144
100.305932624622
100.30596566061
100.306020587994
100.306051836165
100.306075241639
100.305990461204
100.306225569325
100.306022928706
100.306162420456
100.306220486062
100.306284412927
100.306498563064
100.306626253761
100.306232385726
100.306453596422
100.306502080921
100.306564712867
100.306690149333
100.306412476782
100.306192163305
100.306107149579
100.30607351818
100.305999740342
100.305879155072
100.305851877063
100.305911556543
100.305943887926
100.306099245528
100.306085473947
100.305551232081
100.304862977728
100.305223044922
100.305569278686
100.304938037687
100.303202113427
100.302116078967
100.301798043894
100.299702946082
100.299374805464
100.298985427881
100.298931974817
100.298931694448
100.298984029724
100.299374047558
100.299702713952
100.300401666049
100.299754435754
100.298344731554
100.296865131666
100.29546471447
100.297880923044
100.297547678014
100.297063558188
100.29653309587
100.296534222647
100.297067854857
100.297551167825
100.297882724562
100.296867885784
100.298345856401
100.300401072449
100.299753858559
100.301141877463
100.302593692165
100.303891050767
100.30202964432
100.303104749964
100.302584178669
100.303896035563
100.305262082775
100.305902171208
100.306065735024
100.306051148722
100.306055981732
100.306084538666
100.306133813455
100.30618636888
100.30622832454
100.30618941053
100.306378023528
100.30640689356
100.306379703009
100.306324072015
100.306439000996
100.306451668669
100.306592277718
100.306640989727
100.306727558586
100.306573632105
100.306418049841
100.306235193378
100.306334187379
100.306398243123
100.306299347153
100.306492816241
100.306328377618
100.306383271063
100.307550995889
100.307515656054
100.307482203561
100.307490868989
100.307474415411
100.307470227654
100.307482438077
100.307484430337
100.307487857501
100.307496834776
100.307487509774
100.307453842828
100.307426456265
100.307395245395
100.307396394654
100.307429333593
100.30745841282
100.307493531901
100.307503972595
100.307496331722
100.307493476939
100.306613832655
100.306085898617
100.30592274729
100.30607756705
100.305913601995
100.306110115373
100.305954362071
100.306061882195
100.306515524046
100.306642514902
100.306323121386
100.306197783047
100.306016978563
100.305941313413
100.306128790722
100.305905683747
100.306120021436
100.305849691298
100.30597890304
100.306083503153
100.30593132006
100.3060660775
100.305575977253
100.305230428806
100.303896971673
100.302597843231
100.301144368164
100.303206030524
100.304943305593
100.304427370905
100.305535967353
100.305948437196
100.306165639065
100.306550261075
100.307488539903
100.308490164281
100.308455628185
100.308465014592
100.308487230549
100.308494700977
100.308487392176
100.308494294033
100.308498352768
100.307480677109
100.306466436636
100.306234623797
100.30608824733
100.306149498438
100.305853860825
100.306099157809
100.306013575769
100.306175535554
100.306604220708
100.307492371379
100.307511601314
100.308529396649
100.309488692414
100.309452972852
100.309458986292
100.309474255394
100.308505386326
100.307485899004
100.30628869658
100.306641848908
100.306706699116
100.306395702454
100.306208614142
100.3056547288
100.303843800249
100.305298841992
100.305976833446
100.306202863754
100.306245874699
100.306208724963
100.306428181351
100.306513350841
100.306299215608
100.30612268989
100.306181232795
100.306381811344
100.30664880886
100.306457509945
100.306248681825
100.306470680369
100.30652037158
100.306399602295
100.306322803782
100.305631478069
100.303989730103
100.30567692602
100.306308996039
100.306425621833
100.306582224705
100.306500191
100.306399816759
100.306577678258
100.306322464194
100.306367956299
100.306470333256
100.306438012283
100.306256754637
100.306333415023
100.306076696548
100.30636481978
100.306344742291
100.306458053279
100.306429665626
100.306549776778
100.306611128575
100.306594134754
100.306356551233
100.306214684247
100.305658704695
100.304091606689
100.305365620758
100.305018596606
100.303269083618
100.301276631147
100.302709640673
100.302127795273
100.300372029105
100.298395840963
100.3004881265
100.301952850181
100.301965219055
100.300384765589
100.298123180788
100.299941677538
100.301415466385
100.303302265173
100.303110791779
100.304921559219
100.304817871316
100.304808852832
100.303274034859
100.301412621951
100.303283533466
100.30480801046
100.305841605482
100.30606377199
100.306069690658
100.305892045816
100.306035180395
100.306237063328
100.306001815922
100.305863802513
100.305942301799
100.306090977363
100.306226739136
100.306592186649
100.306654545773
100.307610480929
100.308576336925
100.309547602159
100.310442015884
100.310397774818
100.310403797884
100.310413533244
100.309481353607
100.308523164041
100.307496201885
100.30753060761
100.306295718614
100.306660949619
100.306748531744
100.3064211091
100.306149619363
100.305164247278
100.303509826717
100.301520474256
100.30286695851
100.302284632248
100.300516160998
100.298317327728
100.299893865491
100.299280998511
100.297269630884
100.294796777079
100.29683060939
100.296716091649
100.294625731293
100.296531003102
100.295892113622
100.293613802754
100.291322155289
100.293874449909
100.295733569681
100.297990011701
100.299949095068
100.299890847959
100.299736315215
100.302039415665
100.304006614964
100.305211982144
100.305854937928
100.306220996401
100.30608659914
100.305627516781
100.306772910949
100.307723758252
100.308675751646
100.309632134566
100.310497559517
100.311321780753
100.312122149905
100.312908757886
100.31368640955
100.314468029658
100.315254318728
100.315998715216
100.316449491878
100.316077348216
100.315687611588
100.314699290849
100.313451959834
100.311188888541
100.310488867625
100.311268933193
100.312317476706
100.313147555806
100.313787717736
100.31427806781
100.31465349379
100.314936402118
100.315139918071
100.315272731307
100.315346242406
100.315378885117
100.315390020568
100.315477370597
100.315580244867
100.315698344752
100.315830566329
100.315974868588
100.316128251475
100.316286736143
100.316445368218
100.316597915842
100.316736441043
100.316850579031
100.316927137591
100.316947917267
100.316889194873
100.316726245674
100.316442499291
100.316051611363
100.315636104986
100.315358266582
100.315318250473
100.315325035809
100.315339212337
100.315342440512
100.315338973091
100.315336600926
100.315340091693
100.315353560942
100.31535992332
100.31535566529
100.315351530898
100.315333752484
100.31526429569
100.315211073113
100.315290195995
100.315292462339
100.315264496911
100.315302526106
100.315243255853
100.315252902422
100.315253468689
100.315254168754
100.315257798225
100.315259758237
100.31525275269
100.315160758227
100.315166219301
100.315164731059
100.315166804662
100.315168182859
100.315166575711
100.315159161063
100.315148649996
100.315128744263
100.315125226188
100.315136160741
100.315133423134
100.315106119687
100.315002643698
100.314935424642
100.315036448468
100.315040241909
100.315038103009
100.315038575445
100.315047561975
100.315070909539
100.315082943418
100.315083793602
100.31508193168
100.315069026407
100.315070549146
100.3150665309
100.315034380506
100.314960169134
100.314950448268
100.314981752465
100.314976276482
100.314970403374
100.314952450132
100.314942086493
100.314930179383
100.314930488659
100.314949862498
100.314945736661
100.314942796949
100.314931243172
100.314878569259
100.314772921774
100.31471554259
100.314816778787
100.314835431821
100.314845572337
100.314846042551
100.314848664207
100.314843249151
100.314843795361
100.31485440585
100.314866357194
100.314871630507
100.314882859575
100.314871162682
100.314816536052
100.31474759872
100.314762039481
100.314755687009
100.314747279496
100.314743625453
100.314736592598
100.314740961162
100.314759407507
100.314766819757
100.314755626016
100.314736980596
100.314671379926
100.314625761333