/*--------------------------------*- C++ -*----------------------------------*\
| =========                 |                                                 |
| \\      /  F ield         | OpenFOAM: The Open Source CFD Toolbox           |
|  \\    /   O peration     | Version:  v1612+                                |
|   \\  /    A nd           | Web:      www.OpenFOAM.com                      |
|    \\/     M anipulation  |                                                 |
\*---------------------------------------------------------------------------*/
FoamFile
{
    version     2.0;
    format      ascii;
    class       volScalarField;
    location    "0.9";
    object      p;
}
// * * * * * * * * * * * * * * * * * * * * * * * * * * * * * * * * * * * * * //

dimensions      [0 2 -2 0 0 0 0];

internalField   nonuniform List<scalar> 
79506
(
100.127348798126
100.129434225477
100.125666809327
100.13021017825
100.137165539548
100.137405376968
100.135464957559
100.136071962197
100.136461405138
100.136634965876
100.137029712632
100.136651541149
100.138331713103
100.137770853947
100.139899211261
100.139924917076
100.137863269141
100.134983289933
100.131771792235
100.131390771128
100.131492425092
100.133254166427
100.130840965631
100.132036537443
100.133978345208
100.138813443439
100.133415460716
100.132403074756
100.131647542291
100.131293030317
100.131386177265
100.131450838548
100.132279233404
100.133237985838
100.138722978041
100.133737574408
100.131753645687
100.130496682
100.132877519172
100.131084587457
100.131021463252
100.131409399767
100.134633668613
100.137555662548
100.139507373932
100.139381863945
100.132734067502
100.131541275646
100.128153493511
100.128661127308
100.129189642531
100.12902982064
100.129122204074
100.12912990722
100.126888099699
100.130116046119
100.13380749194
100.132324290877
100.128940035648
100.127997744021
100.126972890924
100.127819000886
100.127902479916
100.127239978824
100.128120482215
100.129127907772
100.132631065595
100.134104385929
100.130383173513
100.127168899355
100.129467347843
100.129489733349
100.129339254594
100.129462801655
100.128831151
100.128327626803
100.1318539133
100.133103028129
100.130688909438
100.134006419928
100.13718184463
100.138979051335
100.136993025415
100.136432585318
100.137502322767
100.135650684664
100.133168842894
100.128978249526
100.134430078701
100.122845596112
100.11163043382
100.117809950401
100.119424799124
100.128685462177
100.122842123884
100.123988493295
100.126710271195
100.126028216055
100.125530621083
100.125558413032
100.125525706713
100.130105637758
100.130908853961
100.12637662879
100.126738601192
100.124205932439
100.12302055848
100.123915198956
100.123927409533
100.123052470344
100.124317063706
100.126951827901
100.12665697
100.131192849865
100.130402890301
100.125811269591
100.125918322339
100.125905395081
100.126347721691
100.127008066423
100.12417988792
100.122962485295
100.129134134093
100.129611952357
100.12616589987
100.130013814923
100.136534073643
100.141750266817
100.135196451557
100.134662477066
100.139212029794
100.154676508584
100.123562708185
100.124073456904
100.109043399313
100.082391684441
100.083247179714
100.078936308837
100.079644262731
100.085838341819
100.116068089785
100.126333134865
100.123436771107
100.123197007974
100.127346492008
100.133562032685
100.116841504855
100.117399855733
100.11881890354
100.12815883831
100.123212203718
100.123236449515
100.128277717699
100.118826848914
100.117532962133
100.117033786113
100.11562150768
100.116347835748
100.119876759138
100.117686930991
100.077770081406
100.079825335924
100.081120558595
100.080870731458
100.07979518356
100.079846189409
100.081745056258
100.082172325392
100.086285164175
100.115419996803
100.110567329454
100.094251030157
100.088471351377
100.08839849686
100.08571071722
100.086502058481
100.081008838481
100.081117487167
100.083261544438
100.086994746294
100.086904615227
100.083097295876
100.08096035462
100.086315431484
100.085531744874
100.079160492997
100.079768474534
100.086289267042
100.086745845645
100.085884959967
100.085579364247
100.086451625425
100.086318890858
100.085585336842
100.086816745002
100.086897269561
100.087372380454
100.08744681873
100.086800981757
100.082014858236
100.082824485215
100.082794929862
100.081980905769
100.080977304986
100.081927138444
100.081475046348
100.085404647911
100.086684411522
100.087314428202
100.087600731453
100.086906422389
100.086851687076
100.087567117606
100.087479736294
100.085344696293
100.085139669381
100.085227653067
100.085310489916
100.08537862031
100.085243789886
100.087069686725
100.086164758771
100.086152986772
100.08674454658
100.086296466787
100.085496621868
100.086712458102
100.08503146325
100.084938980347
100.085096769886
100.085197136054
100.085008732885
100.085057767221
100.085361677444
100.082927548652
100.082940331075
100.082886575946
100.082961188803
100.082944018903
100.082991164977
100.082923794123
100.082887398551
100.085204445154
100.087039829595
100.087369651241
100.087211191706
100.085142395801
100.082766786971
100.082751279084
100.082649168083
100.082694608642
100.082736521729
100.082713963229
100.082779795364
100.08089022223
100.081007353474
100.081023271208
100.080969473486
100.081030166183
100.081014451519
100.081037273021
100.080968628821
100.080934779962
100.080936414198
100.082891229484
100.085266442849
100.085674105422
100.083071262241
100.081065349358
100.080841173756
100.080820026082
100.080756947403
100.080819459731
100.080856674826
100.080825154911
100.079119657008
100.079189396099
100.079290033323
100.079296679851
100.079240686588
100.079299922781
100.079285856211
100.079295895273
100.079229862767
100.079199298401
100.079200076082
100.079124971203
100.07910899324
100.079072539607
100.079125428563
100.079145294668
100.077401979787
100.077370819866
100.077437481914
100.077532567222
100.077516614462
100.077471313626
100.077543946162
100.077529897389
100.077539524444
100.077488833224
100.077464672327
100.07746193792
100.077397578491
100.07738833187
100.077365942134
100.077400465703
100.075639196282
100.075702548721
100.075548287605
100.075529556463
100.075702788733
100.075675420979
100.075635240568
100.07572663144
100.075720006865
100.07573949282
100.075707897279
100.07569369856
100.075688906218
100.075632823999
100.07562496447
100.075608916617
100.073826788434
100.073812328823
100.073903264924
100.073580165139
100.073439519655
100.073699220363
100.073757156762
100.073772370678
100.07388581087
100.07389478616
100.073928421879
100.073920339478
100.073919631252
100.073917126974
100.073872341681
100.073856320117
100.072093758726
100.07202832159
100.071936946181
100.071886205848
100.072048089236
100.07192851071
100.071687336836
100.071847541197
100.0719142858
100.072044294596
100.072080058101
100.072136153679
100.072154917221
100.072170686697
100.072170731031
100.072127636807
100.070400842957
100.07033455936
100.070216393909
100.07008115837
100.069807632954
100.070198169596
100.070220037186
100.069810845269
100.069993956573
100.070063158511
100.070213125437
100.070284373329
100.07037827921
100.07043216688
100.07046113996
100.070457929532
100.068783576349
100.06869028926
100.068571094892
100.068366668828
100.068210864955
100.067845460917
100.067696944753
100.067796998048
100.067945527788
100.06808657485
100.0681856522
100.068386363352
100.068516998677
100.068669477218
100.068769451456
100.068807239
100.067221032858
100.067141737803
100.066977794558
100.06677186111
100.066428186431
100.06618818906
100.065861529211
100.065441376034
100.065457441102
100.065783951122
100.065972642497
100.066224551074
100.066538671391
100.066755359332
100.067002721922
100.067178733812
100.065642871129
100.065685255043
100.065466496591
100.065194036564
100.064831415457
100.064264165643
100.063794955395
100.063403261577
100.062801066548
100.062713007677
100.063150834477
100.063523881233
100.064069477515
100.064568017872
100.064966739052
100.065321133749
100.063409403238
100.064008594566
100.064052818522
100.063541493576
100.063167248303
100.062493999176
100.061562925232
100.060752155137
100.060102037179
100.05893414467
100.058894740907
100.059933772337
100.060498798642
100.061383937659
100.062230317242
100.062953546352
100.060254114292
100.060810362965
100.061889036493
100.061947917174
100.060825010834
100.060460757195
100.059409534092
100.057773601533
100.056069745824
100.055118646582
100.05304720566
100.053045362471
100.055091391426
100.055878931251
100.057607374247
100.059143044986
100.053830127438
100.055254172643
100.05547977597
100.058165751716
100.058254265504
100.055609303953
100.055549891022
100.054190701301
100.05137726149
100.04757262974
100.046681300093
100.043371665924
100.043109523158
100.046370080017
100.047561265323
100.051113921689
100.041311657999
100.045528885868
100.047197191787
100.04596244208
100.051995764828
100.052095828819
100.046338563786
100.047498894536
100.045865916489
100.041722884469
100.034583063235
100.033592832077
100.02881217103
100.028330305091
100.032933807623
100.034180358246
100.056322577603
100.061138727376
100.067102848436
100.076246075232
100.0696701353
100.074248911447
100.074610192328
100.069999010881
100.076595841057
100.067369194722
100.061437592526
100.05688313357
100.043605491215
100.080641594227
100.101403078585
100.101794954999
100.081227238172
100.041257897544
100.041736027931
100.144754174829
100.2303825169
100.16750376523
100.167365786122
100.162399750105
100.1523487506
100.143667378383
100.190158569777
100.229640209301
100.13837905111
100.14841434559
100.210618555109
100.166879716064
100.1670876702
100.157716607739
100.158001938451
100.168000586525
100.167391925087
100.211420666296
100.149028261674
100.139028008134
100.190878732207
100.144508928282
100.152322186684
100.162496946903
100.253246389013
100.264099710373
100.26366080902
100.252415666692
100.263136672672
100.270522850812
100.284579308934
100.321684844921
100.337185208956
100.237952802918
100.275477317376
100.368405826684
100.312117629307
100.302336425112
100.291968756866
100.313898847455
100.259922543349
100.260501609525
100.315213808546
100.293836030339
100.303922821739
100.313298455807
100.338642721979
100.322813377271
100.28548851825
100.271335856934
100.264037562391
100.342577783042
100.378827002405
100.347342881785
100.346954828328
100.378047618939
100.364049498885
100.341553606332
100.435876996373
100.461672054341
100.432324263922
100.453367731602
100.458470245725
100.416286062266
100.368165349812
100.411092406808
100.359065632424
100.450021468931
100.474083057191
100.457409895145
100.469185039032
100.492332796135
100.457416501799
100.401070534558
100.425560287975
100.457916852386
100.408576865189
100.430221028255
100.431743947193
100.393730496045
100.428080230979
100.407669815508
100.342433986651
100.343516525417
100.410210367281
100.431728209411
100.396804924453
100.435567792118
100.433228047045
100.409598519136
100.454675719273
100.427330464807
100.402351083951
100.412675312898
100.36928861368
100.365141881556
100.417603851239
100.45479943548
100.433320370784
100.445952880805
100.471399742565
100.470670218747
100.445243087806
100.41842829128
100.418894850528
100.478822784316
100.501332434613
100.496412562736
100.495592336051
100.496243983848
100.487847947877
100.473496089238
100.504577047909
100.508300924871
100.50594522554
100.502406311287
100.49869632582
100.493364118176
100.483871976446
100.485200586949
100.489512939298
100.498592119657
100.484612118354
100.50293053953
100.501284521709
100.498713515059
100.497595199211
100.498855017027
100.499380410248
100.498924741664
100.498471322753
100.493995054091
100.48292950461
100.490752297967
100.496652244233
100.47350625609
100.47525887914
100.467640863039
100.475764774897
100.454848297502
100.456949565764
100.479118484108
100.472810525135
100.479387274813
100.478738570315
100.4997435531
100.494054927909
100.484793509455
100.459259434538
100.471211179737
100.459146872797
100.459962842586
100.486750846322
100.485540986368
100.489201919402
100.49705242584
100.50688407469
100.508383458362
100.516412117817
100.515982786503
100.507949006965
100.505183999303
100.506365742861
100.513500734114
100.51157286771
100.51205859975
100.514442895393
100.515604712657
100.508282075982
100.509197594739
100.514022580804
100.513608898617
100.516154173278
100.512691271139
100.507099280175
100.507524913283
100.507603543044
100.50417460562
100.49944848341
100.499232289612
100.497572906036
100.498335796565
100.492800082869
100.502897699103
100.501645360263
100.498869054452
100.497657957828
100.498113142335
100.49931841628
100.498163375781
100.497160541474
100.497545308318
100.497267912578
100.496752064277
100.497287448289
100.498038883538
100.497757116457
100.498456024495
100.498964703581
100.498722852543
100.49853318845
100.497626198416
100.501323180595
100.496434383991
100.497985233843
100.498084192039
100.491011103669
100.493247218415
100.488700095622
100.495537955832
100.494836523101
100.483171555742
100.484216517133
100.496393760389
100.499775823307
100.495065984587
100.498705014959
100.497276204592
100.50435852823
100.503287651668
100.502554844437
100.505683871198
100.502669007874
100.502997872216
100.5016282245
100.500461631621
100.49134228227
100.494350380413
100.499827424589
100.501028273694
100.504920755829
100.510744818754
100.511009281622
100.513170097041
100.518129384697
100.514826899089
100.515808635922
100.514457018935
100.514307528193
100.514561203819
100.513419091412
100.51478396253
100.515754356861
100.515387699237
100.513119299945
100.513119915662
100.51190878651
100.509484347434
100.511175443728
100.511885267686
100.512371357297
100.508274539204
100.509002212197
100.50545693865
100.504620649516
100.505265363345
100.501119367608
100.499313607887
100.498549933075
100.50131668011
100.503365378262
100.508503694682
100.505593293473
100.503644687874
100.501640408865
100.499736483224
100.498256027925
100.499299393572
100.502164836477
100.506294072204
100.512218252643
100.524058303038
100.543844236651
100.585848382548
100.595148075775
100.524468706493
100.474942028469
100.432449419761
100.384426707613
100.357085931036
100.375235954001
100.372698420786
100.370676305723
100.371060086087
100.371964900047
100.372821079892
100.373871552817
100.375281947043
100.376931436802
100.378594045954
100.380071214565
100.381205405183
100.381875679146
100.380389177803
100.378775405062
100.377136045547
100.375519395195
100.373985644537
100.372621263282
100.371464472076
100.370506401867
100.369691056929
100.368995986395
100.368387197205
100.367849357929
100.367400743421
100.367102366265
100.367043740877
100.367327518073
100.36800434843
100.369068585305
100.370338822064
100.371571422592
100.372318910492
100.372544206685
100.372615425488
100.372754898065
100.372785939883
100.372814120346
100.372863512665
100.372908062812
100.372911054807
100.372967188264
100.372965319866
100.373029395226
100.373125009519
100.373112833722
100.373052640091
100.372941447036
100.372917128436
100.37306439285
100.372839696412
100.372832592576
100.372899279095
100.372826381014
100.372741054412
100.372891500195
100.372759090631
100.372868093239
100.37289077514
100.372905872966
100.372774092885
100.372829200018
100.372794836301
100.372767354825
100.372717721148
100.372674169565
100.372669837367
100.372530563919
100.372381115259
100.372281696204
100.372239834173
100.372306288579
100.372412419144
100.37249338241
100.372617848659
100.37260729957
100.372644962242
100.372708851775
100.372777832631
100.372792806675
100.372841666943
100.372889518779
100.372943815298
100.372932847322
100.372972018307
100.373011315924
100.37295444032
100.373164590391
100.373184463973
100.37321667694
100.373229908914
100.373145942984
100.37305105046
100.372992299681
100.372842745074
100.372440607964
100.371974022995
100.371817908709
100.37201840915
100.372192510027
100.372645059074
100.372424728925
100.372167627676
100.372012259901
100.37227445643
100.372259663355
100.37263691537
100.372681721766
100.372569101274
100.372714653182
100.372736201828
100.372826612728
100.372699391505
100.372699947979
100.372778148002
100.372685331256
100.372663996405
100.372732375563
100.37279456291
100.372863310866
100.372881780594
100.372959193544
100.373005455213
100.373034554216
100.373093233622
100.373105707217
100.373269637271
100.37331816944
100.373357545046
100.373404351753
100.373411159529
100.373533912554
100.373218007004
100.373185044727
100.372967007562
100.373005214139
100.37316923504
100.373179948463
100.373347642096
100.373447662408
100.373554095069
100.373566898108
100.373533534104
100.373336132235
100.373126112389
100.373022033663
100.373125491376
100.373170052532
100.373358890876
100.373288375162
100.373287324043
100.373172235175
100.372965679297
100.372847239553
100.372989067549
100.373019256837
100.373058216257
100.373099763103
100.373170073424
100.373236623704
100.373274425994
100.373486103246
100.373608668852
100.373698392299
100.373717235103
100.373696408148
100.37344564374
100.373212662251
100.372761195552
100.372265857883
100.371845811538
100.372026866424
100.372209915601
100.372179422033
100.372028262283
100.371283897475
100.370638851524
100.370125251669
100.370311844653
100.370624026852
100.370476642508
100.370364387189
100.370664855521
100.370974925
100.37111417358
100.371161896408
100.370889458515
100.371193496148
100.370935631077
100.371666524146
100.372733961317
100.372832632829
100.372711893519
100.372728016156
100.372819656015
100.372878378132
100.372939598752
100.373002144356
100.373013911629
100.37307663053
100.373131034522
100.373191911218
100.373215970896
100.373295950541
100.373373249868
100.373598978036
100.373727119713
100.373803457072
100.373793403436
100.373728971563
100.373544591916
100.373290597436
100.372876499194
100.372395541331
100.371875883125
100.371145458118
100.370761197671
100.370606806749
100.370417462442
100.370293612848
100.369521299413
100.369196761595
100.36900945986
100.36882561776
100.368739261523
100.369185269332
100.369353953203
100.368931061465
100.369228963831
100.369701855565
100.369757679539
100.369912284976
100.37103571547
100.371780151226
100.37273696317
100.372939058484
100.372876474153
100.372852037164
100.37293807473
100.372993643335
100.373052764535
100.373106736908
100.373144259139
100.373202022062
100.37323277801
100.373241566432
100.37334485412
100.373476371886
100.373706499896
100.373843048308
100.373968001976
100.373890306018
100.373914666826
100.373926514729
100.37403985957
100.373927615253
100.373796712489
100.373543019284
100.373280891239
100.373356236061
100.373604238151
100.373821243428
100.373961468524
100.374112975029
100.374064068562
100.37397715668
100.37369252165
100.373439209204
100.373385772603
100.372986445602
100.372523979231
100.371995829449
100.371268704108
100.37091546702
100.370514501124
100.370246116935
100.370164731107
100.369916434036
100.369647642889
100.369379350253
100.369687412082
100.370042001114
100.370332628304
100.370070174588
100.369681501865
100.369502851896
100.369044588932
100.369000596299
100.369134103261
100.368885567242
100.368369068656
100.368621818495
100.368758347046
100.368287437468
100.36835807472
100.367795419175
100.367345972871
100.366954551728
100.366720625994
100.367190067074
100.367624362141
100.367973727721
100.367595513503
100.367727249514
100.367915447625
100.367624469715
100.368266978252
100.366644095591
100.36503304747
100.363881612493
100.36402583921
100.364692372873
100.365700988633
100.367727483753
100.365414555642
100.364392115521
100.363395398
100.359799663268
100.356726438742
100.361609211047
100.360688939179
100.360668913066
100.357994265973
100.358858322058
100.356631058358
100.358955029482
100.360639143229
100.361143426311
100.362442214723
100.363875418945
100.365154091401
100.366409687302
100.367309450085
100.366647224705
100.368514765141
100.365893241332
100.372651732934
100.371593593411
100.370143117175
100.368400379688
100.366557208842
100.365701102253
100.368207838209
100.369614911708
100.364833554568
100.361959254442
100.360709110801
100.349431200805
100.353547112042
100.350944531901
100.354775310755
100.356880782161
100.368019217459
100.369978245906
100.371801977649
100.37204066007
100.372165918746
100.372268327
100.372326624826
100.372357185981
100.372381000466
100.37244590178
100.372517527333
100.372485957614
100.372682405503
100.372690106568
100.372601455258
100.372523220776
100.372503982243
100.372611907558
100.372504836068
100.372639709449
100.372593751389
100.372412447428
100.372462658954
100.372432787895
100.372383320383
100.372344337277
100.372320098949
100.372247630313
100.37210099184
100.372082146721
100.371638004199
100.370937074721
100.371829357612
100.372101905307
100.372139539481
100.372247205745
100.37227277454
100.372299355357
100.372313198158
100.372361542225
100.372399959647
100.372378728482
100.372466964747
100.372401766205
100.372472550126
100.37254731522
100.372529280951
100.372470959702
100.372410967649
100.372430117058
100.371985984471
100.371793258705
100.372109490613
100.371963808062
100.372322944257
100.372186131935
100.37232110213
100.372397924832
100.372333308429
100.372363049719
100.372369714986
100.372390093681
100.372349578678
100.372270505694
100.372291034387
100.372244036406
100.372240836936
100.372126887661
100.372083192517
100.371817971145
100.371066271251
100.371989222135
100.372101934634
100.372164909356
100.372250929335
100.372253792406
100.372309773891
100.37235673938
100.372351042305
100.37235634435
100.372323762434
100.372390402477
100.372277518616
100.372065400922
100.371678179347
100.371093075063
100.371852047023
100.371710953597
100.372321864757
100.372076439735
100.372322393463
100.372395838602
100.372346671808
100.372338063598
100.372385642293
100.372343220343
100.372271675857
100.372234853917
100.372234338668
100.372166345252
100.372102335706
100.371979660069
100.371923826467
100.370817085138
100.369490463238
100.371293472745
100.371988018318
100.372008192327
100.372120046687
100.372209463175
100.372214063285
100.372262423
100.3723359079
100.372377173305
100.372363430729
100.372351364477
100.372389250771
100.37232018082
100.372084177914
100.372425994593
100.372417540934
100.372383622927
100.372386573365
100.372425863413
100.372316447753
100.37220861532
100.371674387231
100.372320356368
100.372314970212
100.372579668479
100.372470608729
100.372514914644
100.372459753901
100.372425791433
100.37233072034
100.372398266869
100.372259602327
100.372225092647
100.372192645049
100.372125932822
100.372013737011
100.371981394298
100.37141342238
100.370146698185
100.371761590838
100.372004127539
100.372067278431
100.37216996215
100.37221909785
100.372197989175
100.372385060531
100.372439023379
100.372261470681
100.372209057972
100.372193259737
100.372077433506
100.371999132899
100.371883100629
100.3716813258
100.370278949584
100.369321245608
100.371166249654
100.371900683365
100.371975053868
100.372073154673
100.372169688931
100.372235807136
100.372222252813
100.372422695033
100.372389133503
100.372512435376
100.372631826565
100.372643785211
100.372584995058
100.372088296534
100.371625657317
100.372215728507
100.372679829708
100.372662481426
100.372838741622
100.372753838347
100.372714923065
100.372606584311
100.372529759761
100.372529445312
100.372306917453
100.372252917376
100.372207005316
100.372120554982
100.372035973668
100.372014461164
100.371428697966
100.370418752536
100.371926911226
100.372090981165
100.37214338585
100.372216532041
100.372292513192
100.372252329838
100.372526292055
100.372476848589
100.372644293429
100.372845786461
100.372927461203
100.372817581485
100.37241244082
100.372883085627
100.372934423854
100.373018340662
100.373001620105
100.372912719682
100.372759077499
100.372620487822
100.372622075761
100.372374155875
100.372309164442
100.372282985032
100.372192556249
100.372139414231
100.372045874401
100.372018559226
100.370778382154
100.37008097984
100.371858651952
100.372211587991
100.372174827836
100.372236479797
100.372323671014
100.372351891839
100.372349826357
100.372611307519
100.372560810306
100.372753797291
100.372934973336
100.373044908615
100.37296932017
100.372492164323
100.372874248629
100.372912434328
100.37293514762
100.373007657998
100.372980499444
100.372699096592
100.372753299479
100.372791445002
100.372646060302
100.372493435262
100.372383913802
100.372323159529
100.372387514484
100.372331035012
100.372277259977
100.372243703056
100.372183889582
100.371888272957
100.370587510416
100.370257656621
100.371825529315
100.372288468998
100.372306418818
100.372340614688
100.372370995957
100.372402155933
100.372447326674
100.372463098013
100.372682346661
100.372628322814
100.372758741384
100.372861193666
100.372883673836
100.372753058969
100.372276169587
100.372591276475
100.372770808135
100.372781051075
100.372681313761
100.372704085842
100.372758285714
100.372737609667
100.372571424588
100.372083158314
100.372460497466
100.372480068252
100.372566154628
100.37269248329
100.372747695367
100.372570177463
100.372639354211
100.372574088837
100.372566888956
100.372656167685
100.372453891224
100.372419849247
100.372495586573
100.372444451908
100.372425715486
100.372391525055
100.372411161849
100.372093356446
100.371889780927
100.372460121463
100.372441875928
100.372473380012
100.372473798588
100.372505117932
100.3725043702
100.372521387699
100.372592943151
100.372645632819
100.372589599973
100.372626787068
100.372574942861
100.372276547274
100.372470034796
100.372566092149
100.372533898658
100.372546074507
100.372567538833
100.372602853923
100.372486913127
100.372512612227
100.372494174857
100.37249873232
100.372517921764
100.372426492494
100.372605140781
100.372018300734
100.372294001
100.372545924265
100.372508875229
100.372510286229
100.37251315008
100.372501777171
100.372519947382
100.372485091123
100.37256974546
100.372508612275
100.372549650062
100.372575386979
100.372483275882
100.372314645352
100.371842170197
100.372202881502
100.372404692064
100.372508087431
100.372483265837
100.372512474948
100.37252150769
100.372408791705
100.372314566614
100.371844361742
100.372163528188
100.372357058083
100.372466063113
100.372458678751
100.372488817903
100.372530449416
100.372543864613
100.372482041596
100.372516573571
100.372513534409
100.372515841971
100.372503983994
100.372555998671
100.372436727694
100.372656287959
100.372127726301
100.372713908368
100.372573241385
100.372594270376
100.372547104772
100.37254733479
100.372531007674
100.372524412075
100.372520300856
100.372539677644
100.372483597545
100.372495350236
100.37253041405
100.372448172805
100.37238192542
100.371970657554
100.37224267997
100.372383839928
100.372440916745
100.372458715092
100.372451788715
100.372437829989
100.372421764326
100.372495011404
100.37228345863
100.372003902627
100.37239770283
100.372535252218
100.372556904458
100.372533595149
100.372613654787
100.372539233415
100.372447944302
100.372469161149
100.372506846924
100.372528111927
100.372496317135
100.372481088035
100.372522416537
100.372539159714
100.372595099493
100.372552826989
100.372609114439
100.372518082561
100.372700198982
100.3722310749
100.372812879652
100.372651655398
100.372765481557
100.372682960171
100.372657693834
100.372656827547
100.372585866408
100.372538776092
100.372547807083
100.372545750866
100.372468628293
100.372514322627
100.372604393122
100.372670738095
100.372581753263
100.372554178387
100.372706411538
100.372850437484
100.37278722136
100.372794040509
100.372727275012
100.372906133747
100.373114456586
100.373136157582
100.373177665932
100.372996645026
100.372712813749
100.372640957548
100.37275783156
100.372665171515
100.372684207118
100.372610292562
100.372652762911
100.372734322874
100.37268962194
100.372780504335
100.372784340101
100.372951563204
100.372783339739
100.373005137388
100.373091680389
100.372155486689
100.372503812114
100.371169273958
100.371724326001
100.370208432409
100.370990400854
100.369478801939
100.368547969602
100.369062155032
100.368305409783
100.36904040247
100.368329214655
100.367909582364
100.368684166522
100.36831554277
100.368143928751
100.369212231454
100.369184775107
100.369333719302
100.370874750924
100.371038670502
100.3720426082
100.372198470024
100.372322861923
100.372383856707
100.372479582676
100.372485524195
100.372563122134
100.372600203249
100.372665965426
100.372623092785
100.372751716733
100.372673256642
100.372725050164
100.372775901322
100.372740024996
100.372641990321
100.372534435316
100.372719364352
100.372703791171
100.372736074238
100.372410875239
100.372289763345
100.37249230376
100.372332153186
100.371931064958
100.371469119653
100.371482206565
100.371748375712
100.371845290796
100.372395834351
100.372217183623
100.371878299326
100.37133318243
100.370688421421
100.369906611739
100.370410928052
100.370622778812
100.370435134061
100.371131675843
100.371147136189
100.371255102274
100.370897843807
100.371246215101
100.371751529377
100.371936366105
100.372238539374
100.372253545975
100.372363262412
100.372366015753
100.372253488204
100.372263411448
100.372288537975
100.372298504137
100.372343525589
100.372374008171
100.372403601625
100.372472280771
100.372492891641
100.372516088649
100.372523233282
100.372563163609
100.372632332274
100.372615969974
100.372663089548
100.372725715662
100.372716760345
100.37285584491
100.372854686183
100.372806936418
100.372857811541
100.372662593329
100.372723113643
100.372733511347
100.372786015523
100.372784892102
100.372748394211
100.372928757594
100.372952241315
100.372856447875
100.372913243944
100.372968780611
100.37302920969
100.373081183886
100.37315842462
100.37321926782
100.373260236057
100.373307496111
100.373388702642
100.373441784289
100.373581779491
100.3737798681
100.373956698853
100.374102018617
100.374237059982
100.374182441081
100.37409168977
100.37384065954
100.37348484145
100.373216081162
100.373345635489
100.372965012591
100.372588504492
100.372095999221
100.371369882556
100.371049685504
100.370664518307
100.370418495816
100.370356247169
100.370153177271
100.370438584296
100.370187472211
100.369830591837
100.369473840682
100.369290000993
100.369824474615
100.369314152724