/*--------------------------------*- C++ -*----------------------------------*\
| =========                 |                                                 |
| \\      /  F ield         | OpenFOAM: The Open Source CFD Toolbox           |
|  \\    /   O peration     | Version:  v1612+                                |
|   \\  /    A nd           | Web:      www.OpenFOAM.com                      |
|    \\/     M anipulation  |                                                 |
\*---------------------------------------------------------------------------*/
FoamFile
{
    version     2.0;
    format      ascii;
    class       volScalarField;
    location    "0.5";
    object      p;
}
// * * * * * * * * * * * * * * * * * * * * * * * * * * * * * * * * * * * * * //

dimensions      [0 2 -2 0 0 0 0];

internalField   nonuniform List<scalar> 
79506
(
100.124983293331
100.127068726804
100.123301309101
100.127844675811
100.134800036665
100.135039868449
100.133099442096
100.133706440585
100.134095878031
100.134269431343
100.134664169218
100.134285991483
100.135966154696
100.135405287137
100.137533637753
100.13755933782
100.135497684154
100.132617697991
100.129406193227
100.129025169622
100.129126821297
100.130888562179
100.128475362087
100.129670935817
100.131612745822
100.136447848102
100.13104987114
100.130037492714
100.129281968333
100.128927462725
100.129020617573
100.12908528621
100.129913690455
100.130872452661
100.136357453513
100.131372057757
100.129388135653
100.128131177783
100.130512020002
100.128719092477
100.128655971074
100.129043908915
100.132268177323
100.135190169958
100.137141879157
100.137016365677
100.130368570688
100.12917578407
100.125788004315
100.126295638309
100.126824153575
100.126664330524
100.126756710637
100.126764408807
100.124522596195
100.12775053781
100.131441978229
100.129958767356
100.126574501363
100.125632199636
100.124607339385
100.125453440824
100.125536911562
100.124874402597
100.125754899517
100.126762317158
100.1302654681
100.131738783315
100.128017569904
100.124803294144
100.12710174198
100.12712412733
100.12697365142
100.127097202117
100.126465557312
100.125962037221
100.129488330537
100.130737455685
100.128323344742
100.131640861592
100.13481629603
100.136613510417
100.13462749008
100.134067057335
100.135136800084
100.133285169818
100.130803335441
100.126612743637
100.132064565588
100.120480088251
100.109264934724
100.115444474644
100.117059341264
100.126319979384
100.120476639051
100.121623007711
100.124344786383
100.123662729885
100.123165132132
100.123192918884
100.123160206992
100.127740133926
100.128543347425
100.124011109593
100.124373067194
100.12184038674
100.120655005786
100.121549637557
100.121561839835
100.120686892753
100.121951478435
100.124586231461
100.124291364209
100.128827236594
100.128037278459
100.123445659443
100.123552710297
100.123539784613
100.123982114329
100.124642463891
100.121814290391
100.120596891151
100.126768543497
100.12724637699
100.123800334603
100.127648257233
100.134168525913
100.139384726106
100.132830916741
100.132296948142
100.13684650787
100.152310984752
100.121197188956
100.121707920022
100.106677854144
100.080026141922
100.080881692727
100.07657086956
100.077278851141
100.083472939626
100.113702642056
100.123967664169
100.121071296368
100.120831529454
100.124981008871
100.131196539341
100.114476017078
100.115034331999
100.116453342821
100.12579328457
100.120846640278
100.120870875216
100.125912134832
100.116461257044
100.115167344086
100.114668147273
100.113255856506
100.11398219511
100.117511146607
100.11532135483
100.075404485905
100.077459703384
100.078755029732
100.078505284539
100.077429818753
100.077480851235
100.079379745923
100.079806984097
100.083919739993
100.113054536107
100.108201842486
100.091885557983
100.086105933189
100.086033181263
100.083345533143
100.084136796278
100.078643447865
100.078752030789
100.080896031348
100.084629179017
100.084539000305
100.080731642048
100.078594666375
100.083949732332
100.083166063724
100.076794849313
100.077402765211
100.0839234394
100.084380152407
100.08351945118
100.083214002071
100.08408639641
100.083953732474
100.08322019937
100.084451878724
100.084532331982
100.085007391254
100.085081581631
100.084435580519
100.079649376568
100.080458899645
100.080429271168
100.079615185725
100.078611537862
100.079561344821
100.079109274058
100.083038721497
100.084318255367
100.084948434441
100.085234949896
100.084540932446
100.084486453092
100.085202090487
100.08511480731
100.082980252095
100.082775278375
100.082863099881
100.082945699717
100.083013429975
100.082878158065
100.084704056711
100.083799146522
100.083787238281
100.08437867549
100.083930511315
100.08313064731
100.084346210356
100.082664725473
100.082572400263
100.082730460902
100.082831203435
100.08264328085
100.082692756369
100.082997022976
100.080563563176
100.080576724947
100.080523039613
100.08059734824
100.080579764591
100.080626213244
100.080558122371
100.080521013496
100.082838376271
100.084673949142
100.085003578018
100.084844974307
100.082775725062
100.080399317043
100.080383672603
100.080281808694
100.080327730225
100.08037025824
100.080348605459
100.080415192809
100.078526304902
100.078644541121
100.078661127604
100.078607456445
100.078667668499
100.078651097134
100.07867275809
100.078602814722
100.078567712779
100.078568218217
100.080524052297
100.082899977975
100.083307711874
100.080704116662
100.078697294622
100.078472260641
100.078450899271
100.078388224812
100.078451520114
100.078490034059
100.078459822753
100.076754501065
100.076826717251
100.076929253461
100.076937095058
100.07688128335
100.076939718719
100.076924174199
100.076932198267
100.076863842696
100.076830930809
100.076830118303
100.076753567049
100.076737202644
100.07670141894
100.076755713028
100.076777813628
100.075033087423
100.075005976207
100.075076960599
100.075175593058
100.07516122202
100.075116365007
100.075187640997
100.075171263114
100.075177328378
100.075122580322
100.075094151563
100.075088740256
100.07502179975
100.075011914113
100.074990693024
100.075027463889
100.073261032551
100.073330513895
100.073184069018
100.07317252505
100.073352116689
100.073327770139
100.073288365454
100.073377164161
100.073366475414
100.073379975861
100.073341286776
100.07331978288
100.073309605702
100.073249570696
100.073240480947
100.073226528645
100.071432123997
100.071424336004
100.071526156643
100.071215956384
100.07108995948
100.071359446623
100.071423001364
100.071439730036
100.071549736589
100.071549683294
100.071573842517
100.071552934345
100.071539875597
100.071527427928
100.071475857022
100.071457283729
100.06966915131
100.069610583366
100.069533430851
100.069501113996
100.069685327427
100.069590425266
100.069366332593
100.069536550051
100.069605420095
100.069729191346
100.069752388443
100.069790861642
100.069787388746
100.069779984086
100.069762452297
100.069707136523
100.067938727946
100.06786595145
100.067759182534
100.067649887134
100.067409538811
100.067839375083
100.067900076643
100.067519822358
100.067721791928
100.067795388197
100.067934639563
100.067986307285
100.068047673422
100.068064114698
100.068053053367
100.068016982844
100.066286504092
100.06615627877
100.066026425251
100.065841176125
100.06573108807
100.065423749698
100.065341443505
100.065509541166
100.065710432923
100.065880688899
100.06598835958
100.066172796662
100.066268738927
100.066366178692
100.066400564784
100.066370103637
100.064734980586
100.064544781029
100.064317834584
100.064096091894
100.063783925639
100.063624852916
100.063400003113
100.063092836029
100.063228591226
100.06364134204
100.063876495238
100.064146602841
100.064435026495
100.064595362684
100.064750698079
100.064809488581
100.063272627442
100.063117028661
100.062698894032
100.062328676667
100.061928955202
100.061417921138
100.061095628533
100.060870054488
100.060467501025
100.060585187705
100.061156744405
100.061607898771
100.062193655599
100.06264910248
100.0629420113
100.063159680201
100.061404278754
100.06164467084
100.061319108826
100.060508455542
100.059957972601
100.059206274662
100.058382128161
100.057821803759
100.057456510757
100.056633821924
100.056924862084
100.058193826014
100.058879823126
100.059840729912
100.060623982135
100.061164154911
100.058853481964
100.058989053613
100.05960937587
100.058939209794
100.057388126195
100.056651309979
100.055502692711
100.054054978025
100.052780477597
100.052312743378
100.050811827042
100.051358740501
100.053767865068
100.054758097057
100.056601065908
100.058048561032
100.053545981814
100.054625555013
100.054175769078
100.055953005982
100.054870213624
100.051340840456
100.050520918226
100.049154521003
100.046723542533
100.043672994877
100.043537689692
100.041285170656
100.04187000691
100.045796661592
100.047381097809
100.05095119345
100.042527064233
100.046615203912
100.047873829432
100.045663246663
100.049884550381
100.04820033796
100.040475683824
100.040493305698
100.038951027178
100.035519405352
100.029726933664
100.029946833512
100.026977594244
100.027856501777
100.033601576148
100.035335209909
100.059451616552
100.064416262756
100.069927338824
100.078943518916
100.070499160243
100.072639271743
100.069491167566
100.062511150097
100.066789785044
100.057646191018
100.052628121407
100.050706986022
100.039450956493
100.078160402363
100.100873356292
100.102785979353
100.083386544394
100.042040717587
100.040349966167
100.143710166033
100.229825938766
100.167607066959
100.169785647709
100.165897276312
100.156256102456
100.148790504419
100.196482484971
100.236655391122
100.144294130207
100.154972457222
100.217833486189
100.172056757631
100.169558614952
100.156598648915
100.152191843702
100.158004388938
100.153931649057
100.195715021171
100.134826948094
100.127230398424
100.180106322863
100.136767538209
100.147711395174
100.160187155812
100.251684181365
100.265531157489
100.267506430153
100.257022163318
100.268535823021
100.277016231482
100.291936087808
100.329100843124
100.34438111207
100.245623562199
100.281228386877
100.374381882179
100.320162085157
100.310536707388
100.296042037316
100.315662700143
100.259509279362
100.253990581
100.305618828691
100.28168002002
100.287584571925
100.295176484154
100.318615719055
100.306473437741
100.273440525787
100.263169124853
100.259366732835
100.339963977788
100.378978858159
100.350147638963
100.351828673566
100.38354181368
100.371271723624
100.347662830377
100.439737088169
100.465655072739
100.437196853845
100.457793958035
100.463238824678
100.422378422839
100.375440343558
100.41788293697
100.366301277313
100.455379464421
100.478527194121
100.463142420448
100.473958116166
100.495681063363
100.464024774828
100.409599185132
100.432913964655
100.467026322601
100.416783924368
100.437723685821
100.438385124027
100.398843489983
100.431850085291
100.4097805933
100.342082008912
100.338003421964
100.403811846741
100.420523956382
100.384012604324
100.420757675149
100.417840972475
100.390707008408
100.432254427728
100.403233420267
100.383807648375
100.399817677869
100.361511449253
100.359149823341
100.413202339327
100.452700551376
100.434246317804
100.447843036322
100.474162690937
100.473722173246
100.449585527639
100.422866662159
100.422350327821
100.481638820767
100.502484681979
100.498270169326
100.49767861569
100.497700896334
100.490318387829
100.477141140981
100.506139197293
100.508832762286
100.506681449875
100.504200258468
100.500490583744
100.495698497752
100.487008816805
100.488244693029
100.492210860035
100.499911255103
100.488472619982
100.504429245744
100.501719773773
100.499435199234
100.499278434709
100.50005013768
100.500542926345
100.500563620671
100.500602920801
100.497338749938
100.487397634384
100.493458925038
100.498603235911
100.477069316462
100.478290342362
100.471314729824
100.476914995665
100.455341814819
100.451602729408
100.472585546087
100.464014729481
100.469155277131
100.468394959989
100.484284688009
100.481979819607
100.463479728476
100.444492668159
100.461680625466
100.448529622825
100.455366510403
100.484415649594
100.485033783076
100.489399189366
100.499156240472
100.508936695349
100.5079644103
100.514155596009
100.514872161204
100.507508380508
100.505975728657
100.507221100047
100.512226062088
100.509400564326
100.511506700524
100.509830477962
100.511610725955
100.509091420788
100.50822698025
100.514058080878
100.51626065814
100.516771028404
100.516555376084
100.510871776201
100.511654472638
100.509163176305
100.50723109012
100.500564356501
100.501352916727
100.499404535063
100.499503911588
100.495157011616
100.503689532305
100.502602000722
100.499875973454
100.499219666653
100.498828123442
100.499146379568
100.497772984728
100.496342434442
100.497556592968
100.497184673275
100.495872633662
100.497009784163
100.498679662841
100.498364417425
100.499745489583
100.500613962392
100.499803774582
100.499747448494
100.498184260218
100.50070302602
100.497429806133
100.495843946387
100.499056149357
100.491882188899
100.493192148376
100.49121397003
100.49674789373
100.494843717085
100.482584366674
100.481609639491
100.494729221906
100.495606907525
100.487305219363
100.494029747483
100.491704391905
100.498993391461
100.501636780192
100.498799348909
100.503299525707
100.499970572049
100.501645799616
100.499693975771
100.497540613021
100.488491543991
100.493359662396
100.499457790344
100.500011060397
100.504041539911
100.50890017276
100.507438703039
100.513604850513
100.510780227884
100.510878898809
100.511243088448
100.513947632003
100.512955866282
100.511940487547
100.511639593513
100.511284396661
100.510354283441
100.509993830908
100.513258212035
100.515465242252
100.517465995515
100.516362618477
100.517011051354
100.515910479334
100.515208739578
100.513450198499
100.513770624837
100.515101932211
100.513260347915
100.513564490482
100.510277706559
100.504405821289
100.506175544281
100.505664050277
100.510918191892
100.516929844408
100.51349647939
100.51141590724
100.510639889786
100.507649492259
100.502664290013
100.499090679248
100.495584557043
100.492276525279
100.490020947712
100.495981645875
100.508523918911
100.541996035306
100.554687003305
100.499955215814
100.460414183476
100.424294336414
100.382058859528
100.357800145153
100.37444384049
100.371862542103
100.370194569875
100.370665389855
100.371520377959
100.372363912007
100.373435109962
100.374866414137
100.376539110232
100.378225529091
100.379706973617
100.380826668097
100.381465249624
100.380434523046
100.379225431383
100.377835723583
100.376245100883
100.374533470904
100.372871191019
100.371402796844
100.370202451784
100.36922116989
100.368416971822
100.367747956713
100.367178376988
100.366677819637
100.366237512315
100.365925469715
100.365899386881
100.366373406958
100.367535733718
100.369232606964
100.370880646186
100.371804446333
100.372021600503
100.371987002496
100.371990106635
100.371980571069
100.371984915149
100.371996029591
100.371995891027
100.371969922133
100.372073254014
100.372047524358
100.372243249961
100.372401765708
100.372310528327
100.372182225527
100.37197627413
100.372019184575
100.372322188555
100.3721974149
100.372296632015
100.372223493372
100.372004020883
100.371856125748
100.371847633337
100.371804473621
100.372005697242
100.371933596599
100.371933877963
100.371796043391
100.371853329578
100.371864861898
100.371875669733
100.371875178895
100.371838930571
100.371894952262
100.371888371801
100.371789672
100.37174910259
100.371701482663
100.37172527905
100.371808370874
100.371813318995
100.371813323732
100.371800309521
100.371754623853
100.371765606038
100.371801663124
100.371833156216
100.371852703361
100.371890155234
100.37193887134
100.372088140578
100.372096655885
100.372142778226
100.372036812453
100.372379077246
100.372453462832
100.372513318342
100.372616895971
100.372657698423
100.372579614495
100.372512637951
100.372489800924
100.372142122135
100.371612260273
100.371485212794
100.371662816112
100.371852502447
100.372236877094
100.371940197177
100.371696564749
100.371521893791
100.371582527982
100.371660251652
100.371837145164
100.372007732144
100.371786892715
100.371660686917
100.371478387754
100.371504713636
100.371529840803
100.371678656871
100.371789236317
100.371812930505
100.371790298022
100.371850382124
100.371908099501
100.372076918962
100.372065162963
100.372158319975
100.372177895426
100.372165376939
100.372245340564
100.372273037863
100.372541416392
100.372618470307
100.372748925678
100.372858008119
100.372804101254
100.372963709943
100.372491242061
100.3723658606
100.372021678863
100.372099045726
100.372350861369
100.372383667285
100.372652723619
100.37279111172
100.37300193546
100.373064463632
100.373110632528
100.372946863312
100.3726884178
100.37261059599
100.372753279686
100.372773398314
100.372910507989
100.372792859517
100.372638174628
100.372335038473
100.371931767504
100.371701181685
100.371971876563
100.371992939166
100.372230770456
100.372245057151
100.372326166993
100.37243965901
100.372521522835
100.372831475958
100.373000865111
100.373177857343
100.373238276328
100.373279202972
100.373031354258
100.372748671416
100.372287411962
100.371710667457
100.371155606673
100.371433393533
100.371645190666
100.371734707869
100.371627147839
100.370852209853
100.370140900957
100.369437408293
100.369759484682
100.370123137212
100.370102188481
100.370061975494
100.370373908345
100.370712388709
100.370801440697
100.370795587789
100.370453579931
100.370807037455
100.370255255627
100.370850889812
100.371600221036
100.372146863007
100.372093967927
100.372093506459
100.372057864119
100.372125468248
100.372167303185
100.372230743562
100.372212040705
100.372279949776
100.372319228737
100.37237809685
100.372362055181
100.372509335892
100.372661128367
100.372977453146
100.373156502542
100.373309213595
100.37330497381
100.373297864407
100.373102772541
100.37279271376
100.372359686804
100.371789557088
100.371112856836
100.37027799146
100.369838802495
100.369728770895
100.369587493457
100.369517891728
100.368668800626
100.368277617282
100.368120450394
100.368019478012
100.368063756181
100.368550497426
100.368580069355
100.367996714611
100.368414270938
100.368945860512
100.368970856529
100.369050150068
100.370321311812
100.371015690922
100.371645216015
100.372222319734
100.372245528763
100.372227080041
100.37218133432
100.372240948484
100.372273073431
100.372317730014
100.372359049916
100.372414323499
100.372398653079
100.372373788425
100.372557263779
100.372791798376
100.373101968858
100.373302073017
100.373495819958
100.373433723231
100.373445772954
100.37350382305
100.373624469096
100.373440305919
100.373205050884
100.372852333669
100.372497976756
100.372579225967
100.372958146352
100.373245055632
100.373463019108
100.373675544512
100.37364083219
100.373520090298
100.373233389122
100.372852648055
100.372858857727
100.372428724662
100.371880847006
100.371194641759
100.370354355906
100.369949644518
100.369522453287
100.369339534829
100.369301424506
100.369025373016
100.368733520166
100.368431937967
100.36875992584
100.369130293567
100.369377085891
100.369128738185
100.368779005369
100.368528009735
100.368084186192
100.368174784149
100.368404857522
100.368125934508
100.367517133939
100.367766952024
100.367822682546
100.367373011317
100.36740734488
100.366866301371
100.366472062859
100.366153063763
100.366002124146
100.366520055217
100.36682153318
100.367093341643
100.366567429313
100.366718797935
100.366994004863
100.366529910065
100.367437393426
100.365844289731
100.364391046493
100.363528289597
100.363330581857
100.363773748894
100.364707021286
100.36688540812
100.364258659643
100.363232854568
100.362473096056
100.358783803254
100.356491302796
100.361241654937
100.360706992932
100.361104596536
100.359061614746
100.360942761779
100.357875526074
100.359385409784
100.360762960709
100.360701711484
100.361594710456
100.362978319742
100.364064840954
100.3653516336
100.366312627388
100.365684285919
100.367629299108
100.364778329473
100.372233645218
100.371209703036
100.369774529985
100.367864079047
100.365715707823
100.364886336814
100.367864525454
100.369058459442
100.36478431886
100.362839928413
100.361669046524
100.353754688506
100.356145133871
100.35372509827
100.356615839285
100.357697415227
100.367051173234
100.369171667825
100.371193722183
100.371388518679
100.371493761067
100.371569134699
100.371498358099
100.371519152507
100.371452608218
100.371456030821
100.371461568236
100.37138182941
100.371463494317
100.371357115841
100.371247489377
100.371205437185
100.371068394631
100.371164989117
100.371109319314
100.371272122097
100.371341635839
100.371250107646
100.37135465353
100.371421480932
100.371418782472
100.371471140853
100.37146899629
100.371499264123
100.371411623926
100.371493565075
100.370987928502
100.369954557941
100.371221543822
100.371521825654
100.371405646374
100.371435830719
100.371355111241
100.371372921939
100.371297609147
100.371299071012
100.371215312132
100.371158500992
100.371153972143
100.370988667558
100.371012044985
100.371095487628
100.37120469407
100.371122171106
100.370947185552
100.370901336781
100.370452178076
100.370278977405
100.370538831714
100.370434367235
100.370695530581
100.370642792248
100.370798464359
100.370980644319
100.371023052532
100.371145627734
100.371241148373
100.371292740767
100.371270899683
100.371274739317
100.371362199941
100.371350807804
100.371365815068
100.371366015956
100.371444214068
100.371252540032
100.370188016899
100.371428506916
100.371396802751
100.371353436912
100.371335987775
100.371319506727
100.371259950913
100.371222828763
100.371133187666
100.371071485903
100.370999662894
100.370903859399
100.370691909072
100.370429469718
100.370060504673
100.369691941397
100.370163585652
100.370128258539
100.370520251375
100.370271197022
100.370685813193
100.370876858982
100.370976401236
100.371088906089
100.371183369113
100.371124486333
100.371145951665
100.371254191502
100.371241308575
100.371318890429
100.371361225392
100.371410194748
100.371400097345
100.370060312957
100.368271670534
100.370762746544
100.371506818549
100.371364494036
100.371347347511
100.37127999494
100.371298992878
100.371165135612
100.371190249226
100.37111060296
100.371007765651
100.370900510693
100.3707887639
100.370549181743
100.370391668288
100.370705874265
100.370847013308
100.370952800461
100.37092599073
100.370783452917
100.370547689007
100.37022810468
100.369807415665
100.370492683235
100.370306758721
100.370683372629
100.370512828483
100.370762614529
100.370883400244
100.370976511882
100.371010116982
100.371140009315
100.371109601483
100.37123219825
100.371228272406
100.371305206115
100.371336436534
100.371453592357
100.371010620328
100.36937741975
100.371364792295
100.371377160499
100.37131115513
100.371236008833
100.371250214314
100.371121226228
100.371135729796
100.371072974155
100.371089829586
100.371190631146
100.371197276554
100.371262512417
100.371305984851
100.371353383057
100.371262219927
100.369656632876
100.368463994333
100.370808528486
100.37140822226
100.371299583702
100.371288709182
100.371228577768
100.371231555027
100.371092215919
100.371136930512
100.370979495146
100.37090570919
100.370753965569
100.370509796176
100.37029225307
100.369792200234
100.369231499954
100.369795487864
100.370341234799
100.370303789794
100.370623266728
100.370592767079
100.370771046275
100.370888145701
100.370966840932
100.371057578312
100.371073310915
100.371163077231
100.371180339315
100.371248067105
100.371288527734
100.371386599571
100.37108682208
100.370015088458
100.371339258392
100.371309704117
100.371250621787
100.371180005293
100.371186260483
100.371069729141
100.371098416565
100.370948948405
100.37090549898
100.370765518699
100.370516761215
100.370368232328
100.36973068602
100.370229313098
100.37027451598
100.37053690788
100.370605447396
100.370763780029
100.37087010143
100.370944146885
100.37103424
100.371041810005
100.371122795752
100.371144937034
100.371188371269
100.371248478489
100.371244730908
100.371338181016
100.370398573407
100.36983848849
100.371209144013
100.371300355128
100.371247970871
100.371210580165
100.37115599371
100.371162207628
100.371024731796
100.371059267339
100.370907896266
100.370882652905
100.370754134088
100.370508714899
100.370370304998
100.369688545913
100.370206547328
100.370222508041
100.370447333589
100.370590668204
100.370733408806
100.370733354986
100.370895542405
100.370866102335
100.370996224533
100.371027174159
100.371065330465
100.371138278956
100.371191487824
100.371176757529
100.371244620133
100.371278304439
100.371297438717
100.371275813364
100.370263678682
100.370084205014
100.371252328788
100.371445176315
100.371340765942
100.371299603119
100.371229711551
100.371156995355
100.371150848031
100.371038005371
100.37103952718
100.370922361638
100.370848807659
100.370786916403
100.370607309766
100.370404147621
100.369955934235
100.370248720692
100.370511264168
100.370713445418
100.370849715544
100.370860248549
100.370750065376
100.370618528133
100.370592335249
100.370105435772
100.370384446229
100.370549108939
100.37061919518
100.37069939914
100.370786605401
100.370788355322
100.370871520083
100.370943370733
100.371024425496
100.371043279219
100.371054962006
100.371167261131
100.371213941903
100.371208270573
100.371278772133
100.371347548909
100.371399963997
100.371211503073
100.371358417051
100.371498881776
100.371425573264
100.371357230944
100.37125337119
100.371237574523
100.371148886548
100.371090049242
100.371023339237
100.37085807013
100.370898974563
100.370965422059
100.370932352762
100.370720597325
100.370838215481
100.370985315416
100.370949184895
100.371042420685
100.37104756639
100.371109168028
100.371151628382
100.371221329924
100.371272604722
100.371334839524
100.371423436443
100.371429739905
100.37163928639
100.371203506872
100.371672738537
100.371633153625
100.371572004334
100.37148745779
100.371419820838
100.371370748814
100.371304465092
100.371264028667
100.371190483858
100.371134475812
100.371058509008
100.371141868868
100.371057859288
100.370935961184
100.370713213582
100.371003835306
100.371086246957
100.371140887574
100.371076368036
100.371191138998
100.371245755535
100.371199119768
100.37125655476
100.371013437027
100.371226935651
100.371271013321
100.371303902454
100.371188901387
100.371251181163
100.371238787306
100.371273222757
100.37134642267
100.37135858811
100.371378905142
100.371456612162
100.371490398916
100.371593511563
100.371599055478
100.371811467806
100.371433680564
100.372054177137
100.37185077042
100.371811794354
100.371700270817
100.371613089476
100.371564781633
100.371479248194
100.37149809842
100.371403355667
100.371364316536
100.371325654815
100.371454925364
100.371429920122
100.371526220753
100.371232855426
100.371493622392
100.371456519434
100.371396420749
100.371313903469
100.371352203209
100.371424715752
100.371539091151
100.371765877114
100.371658984324
100.371479358536
100.37183321049
100.371876721131
100.371853819539
100.371776723149
100.371833186995
100.371651996699
100.371460372352
100.371406696314
100.371451024255
100.371444089649
100.371404348638
100.371452453395
100.371515003058
100.371554903858
100.371689376856
100.371686322
100.371804755942
100.371836957963
100.372034387719
100.371655425914
100.372169856197
100.372051642419
100.372070046574
100.371913470238
100.371824486705
100.371817117268
100.371660205302
100.371569638121
100.371600343615
100.371550355956
100.371436400857
100.371514256385
100.371628945306
100.371741578367
100.371647607795
100.37165307398
100.371941695524
100.37219618362
100.372168680788
100.372134545826
100.371939299674
100.372216586472
100.372493420064
100.372523584073
100.372536322724
100.372271765334
100.371884610997
100.371704065413
100.371853622101
100.371788600069
100.371816981886
100.371743435756
100.371772074609
100.371909585996
100.371870133137
100.372002245948
100.372111896947
100.37226736283
100.372165381377
100.372301564074
100.372553929038
100.371861439604
100.372042110709
100.370997556785
100.371403334699
100.370149849578
100.370795469318
100.369274271744
100.367709621827
100.368603501168
100.36720608715
100.368370529411
100.367086185382
100.366388930351
100.367362244951
100.366671462687
100.366350210897
100.367722819495
100.367610397823
100.367756551814
100.36988489005
100.370164997558
100.371446784792
100.371572705361
100.371682841997
100.371641509018
100.371661835422
100.371647634804
100.371638989662
100.371643942109
100.37163519657
100.371564085194
100.371620877537
100.371523889435
100.371584438599
100.37160617836
100.371601131289
100.371565750732
100.371428260052
100.371516643018
100.371420626532
100.371490232592
100.371239648924
100.371269084673
100.371298667234
100.37102294515
100.370784597648
100.37050713093
100.370291858307
100.370439356559
100.370539556008
100.37093760902
100.370696577377
100.370415670545
100.369983967587
100.369441736391
100.368905435346
100.369238080527
100.369390457981
100.369206625686
100.369752231414
100.369707581444
100.369857711298
100.369637302842
100.369974210837
100.37045532519
100.370631878401
100.370958334756
100.37111096956
100.371317466383
100.371405741064
100.371384358771
100.37143243324
100.371490267181
100.371549549707
100.371559169933
100.371515086048
100.371531611298
100.371507728837
100.371473683651
100.371488839387
100.371502066304
100.371571534123
100.371625613084
100.371717361061
100.37172379055
100.371730309621
100.371710001246
100.371839644474
100.371823297372
100.371642206308
100.371698738583
100.371539265419
100.371596952284
100.371580639169
100.371623664245
100.371622695467
100.371526028924
100.371919532864
100.371937181204
100.371966245755
100.372027940272
100.372089403019
100.372158442123
100.372214375167
100.372364331245
100.372426968165
100.372462648364
100.372517616031
100.372619382727
100.372692308849
100.372878082434
100.373184360914
100.373422903143
100.373653396583
100.373834435945
100.373778428217
100.373671245293
100.373378933734
100.372960554491
100.372558311733
100.372761533501
100.372333126237
100.3718778756
100.371267285815
100.370417013014
100.370058407474
100.369648906241
100.369507525094
100.369512164051
100.369386215381
100.36977847635
100.369516858432
100.369136086533
100.368748982025
100.368610405137