/*--------------------------------*- C++ -*----------------------------------*\
| =========                 |                                                 |
| \\      /  F ield         | OpenFOAM: The Open Source CFD Toolbox           |
|  \\    /   O peration     | Version:  v1612+                                |
|   \\  /    A nd           | Web:      www.OpenFOAM.com                      |
|    \\/     M anipulation  |                                                 |
\*---------------------------------------------------------------------------*/
FoamFile
{
    version     2.0;
    format      ascii;
    class       volScalarField;
    location    "0.2";
    object      p;
}
// * * * * * * * * * * * * * * * * * * * * * * * * * * * * * * * * * * * * * //

dimensions      [0 2 -2 0 0 0 0];

internalField   nonuniform List<scalar> 
79587
(
100.075042507264
100.076986815339
100.073611260763
100.077958400934
100.085000114911
100.08511571098
100.083071281656
100.083596201765
100.083709311096
100.084083612934
100.084371007311
100.084183219406
100.086061660939
100.085749866971
100.088087794947
100.088045746074
100.084728011077
100.080081378973
100.079063601533
100.079060664349
100.080051046165
100.079768083449
100.07898660795
100.080531626471
100.086940850651
100.086839422366
100.081182976441
100.079514441675
100.079487852715
100.078670915937
100.078543611296
100.079611644783
100.079523247813
100.081138147254
100.086601008034
100.086504601328
100.08033007744
100.078945304473
100.079754796195
100.079825618957
100.078922351195
100.078927010502
100.079994444047
100.084559031232
100.087702277136
100.087558672679
100.080660190942
100.080208058457
100.077921728355
100.077212930694
100.077340600252
100.077208003706
100.076615364937
100.07529371219
100.07641094035
100.077728586319
100.077827471943
100.076920742901
100.075955116529
100.074731230881
100.074401837396
100.074992260099
100.074916286225
100.074240824258
100.074742999882
100.075938150378
100.076768004459
100.07785330468
100.077928815299
100.076513553043
100.075435239586
100.076789236476
100.077282209228
100.0773867219
100.077173051275
100.077878108458
100.080416486128
100.081138355009
100.078728571908
100.081629827902
100.084544771377
100.085896121244
100.0835735961
100.083382924948
100.084775239934
100.083056461996
100.080694994617
100.076465030226
100.081742309271
100.07051167279
100.059509647554
100.065278365378
100.066374442156
100.077319438715
100.072990171896
100.073619362791
100.075943764149
100.074068591857
100.072586654172
100.072001602921
100.074721785837
100.076538810213
100.072398485139
100.071636763212
100.073835751153
100.070574732169
100.06946331544
100.07069462807
100.070696336822
100.06950951395
100.070585514497
100.073779235657
100.071510927411
100.071945717865
100.076584051381
100.075159467621
100.072290891421
100.072730628519
100.07411837017
100.075938189386
100.073523396291
100.07283034559
100.077579735686
100.077604066556
100.074585182718
100.077697103461
100.08390819406
100.088596462575
100.08154036413
100.081483679603
100.0862890246
100.102232321673
100.071929734563
100.072451099387
100.056760470846
100.02977452641
100.030710900837
100.026536707848
100.026836196333
100.033124308545
100.064544121233
100.075751477366
100.071457107274
100.071197676066
100.077889616236
100.066107674811
100.066804275881
100.066638572551
100.066871189206
100.074627062061
100.070164720999
100.070147133841
100.074564740673
100.066889546807
100.066702850876
100.066838901152
100.065969949077
100.064671628194
100.066673327324
100.064630345882
100.024997643137
100.027414972579
100.028220939446
100.027856692133
100.027251805422
100.027339791503
100.028813331508
100.029424716169
100.033559867853
100.030809139242
100.031800803431
100.035316290355
100.035322033016
100.031850667991
100.030828519219
100.033373225158
100.032875271449
100.026268457633
100.02708305473
100.033652367892
100.034325900197
100.032922351958
100.032573533362
100.033847784395
100.033755286729
100.032938680251
100.033256753683
100.033441802744
100.028474664471
100.029311244295
100.03055305681
100.030510649233
100.029238134849
100.028334008633
100.029235780169
100.028566096995
100.032756095341
100.034097178807
100.034686759339
100.034837867211
100.034214515617
100.034317048742
100.034977533806
100.034862256123
100.034299823458
100.034495252013
100.034642868599
100.034664605862
100.03383882818
100.033521510529
100.033460826196
100.033712036828
100.033259251925
100.033057094005
100.034305293045
100.032575607805
100.032393536341
100.03257129244
100.032394483583
100.032679393603
100.032999253604
100.032881400055
100.032744867147
100.032537738184
100.032717214548
100.032705789085
100.032714166878
100.03260167439
100.034331255966
100.034288057772
100.034565677675
100.034462250768
100.03258041073
100.03026780441
100.030290969906
100.030166035016
100.030249136657
100.030170498435
100.029977647975
100.029997313126
100.030213174403
100.030273166179
100.030185430896
100.030350015936
100.030323677103
100.030403314562
100.030365231798
100.030347256811
100.032575881521
100.032690341555
100.030382851828
100.028484320858
100.02837731394
100.028388844573
100.028289535223
100.028361306572
100.028447080756
100.02853327149
100.028272716245
100.028046394577
100.028236824762
100.028182436686
100.028350536575
100.028353032286
100.028472832499
100.02846473972
100.028463101845
100.026798586205
100.026803682947
100.026681833619
100.02666572961
100.026549112355
100.026525123064
100.026367893803
100.026600620045
100.026465309334
100.026150190849
100.026399045637
100.026348758293
100.026536046231
100.026579314353
100.026744018878
100.026778463455
100.025041167978
100.02507792495
100.025041293535
100.024854436491
100.0247863196
100.024605011126
100.024504496194
100.024176336979
100.023782708561
100.023832081601
100.024170831216
100.024352114279
100.024368285744
100.024595336823
100.024685180694
100.024944704922
100.022814773307
100.023013797141
100.023060157254
100.022937394085
100.022644711306
100.022509667172
100.022196478549
100.022031150191
100.021835879439
100.020928146708
100.020948272894
100.021747480763
100.021811254089
100.021992705372
100.022277128368
100.022438177062
100.019207713055
100.019918878871
100.020300719639
100.020338361974
100.020005042637
100.019415996179
100.019466349781
100.018952441789
100.018400512324
100.018511866308
100.016893365569
100.016854723956
100.018353701129
100.018174399747
100.018799354171
100.019220474697
100.014638023107
100.013675601691
100.015183023314
100.016182789499
100.01618438003
100.015254366154
100.013865086831
100.014848145798
100.014258260427
100.012098477592
100.013377450521
100.009798781802
100.009740174236
100.013251393547
100.011945484606
100.014111112708
100.002764991337
100.002717396251
99.9973562642079
100.000443209985
100.004287781328
100.004207575515
100.00023947175
99.9978072645882
100.00306334577
100.002863430504
99.9950706389891
99.9990218046819
99.9943608689113
99.9942678805481
99.9988856760243
99.9953471821198
100.002180296976
100.011042823204
100.010004482484
100.003905602258
100.010273966536
100.012241688733
100.012166905615
100.010197067309
100.003865704984
100.009962431939
100.011113495458
100.002250055102
99.9978114673133
100.02872008548
100.050392787196
100.050143556852
100.028462638521
99.9950226297772
99.9954377998074
100.08849160235
100.172106005348
100.108044326609
100.108206829252
100.094890112916
100.083901562227
100.074044125349
100.071793085685
100.068137260935
100.067495053561
100.079756474839
100.072136038951
100.072101983304
100.079695216865
100.06757052249
100.06797892447
100.072161852024
100.074105469987
100.083710616929
100.094315253651
100.185876640985
100.201902745829
100.201971686197
100.186100290375
100.189511557077
100.180626771993
100.206032289646
100.248353777286
100.159126801166
100.160893015687
100.212095763614
100.175877421924
100.200709753199
100.225163789923
100.165558082848
100.165533009515
100.225300743623
100.20088295949
100.175876532954
100.211944750775
100.160163473603
100.158442163276
100.205789941036
100.180815278403
100.189100265753
100.27674165611
100.321274164241
100.289727394644
100.289581895061
100.321586578039
100.296022681363
100.277073343644
100.401221156488
100.43049575753
100.383572954275
100.40327473472
100.407066426057
100.356424781355
100.298816719517
100.332045996615
100.27798447233
100.400939784108
100.434548214842
100.391614212352
100.394334999513
100.319550578184
100.322706471239
100.250593704911
100.297547095251
100.383724505616
100.429154258776
100.397253141263
100.402629115026
100.338007531765
100.289994149959
100.330530973804
100.309597277062
100.313550849883
100.3360467854
100.247360029293
100.247414906416
100.336157591654
100.314041596944
100.310442685645
100.330739501048
100.289795616789
100.338092863703
100.322723287581
100.319440117394
100.33179415578
100.298563318057
100.295963789866
100.356072501094
100.402887924457
100.383280268191
100.397080142618
100.426412092907
100.426373968103
100.397294793628
100.367410637362
100.367431997272
100.445910795496
100.469335730059
100.457811676203
100.457726281153
100.458434553772
100.451374965761
100.43271802814
100.476422282445
100.478059120736
100.470972721377
100.470574398909
100.469530067182
100.462715372869
100.446614197592
100.447128281022
100.449900250181
100.460331146646
100.430739719403
100.431697158328
100.434382583628
100.440899156714
100.460831227809
100.458413485155
100.438977380764
100.397788875671
100.405153391301
100.383048067941
100.414318917363
100.40197002474
100.401933559189
100.414363465903
100.38334951294
100.405149172297
100.397814964173
100.40255186038
100.397214723082
100.394270278502
100.391343945744
100.406761228558
100.446956795139
100.44632034934
100.451210616317
100.458490431705
100.471048617551
100.471630713065
100.479688096962
100.479528112189
100.471647126963
100.467454312322
100.467700472557
100.477103490292
100.476756734062
100.477894419002
100.478171952976
100.478035712758
100.477929640703
100.474743959812
100.479963526921
100.482165981355
100.480116486428
100.48053888044
100.481636362989
100.480557621925
100.477900959739
100.482003689108
100.478916517808
100.475879635421
100.470230344072
100.474541327763
100.464220041573
100.481993916711
100.481068617887
100.478745510203
100.477056898448
100.479770008075
100.475768868249
100.475217998962
100.480468041814
100.46349545514
100.466006330214
100.466889867212
100.479742127607
100.474535908744
100.472880782067
100.470865977229
100.454520779121
100.446108883437
100.450841753957
100.435505913585
100.435491899259
100.450856334576
100.446133264147
100.454544901499
100.438959210809
100.458362188846
100.460781249903
100.440819638366
100.434331482285
100.43162105855
100.43055057463
100.449719761214
100.464025026994
100.469950403399
100.469288111982
100.470292373918
100.477777614525
100.477713584808
100.47786651155
100.480117051966
100.477815834278
100.480658435752
100.480714049402
100.477783164354
100.476785890803
100.476718312013
100.478586981303
100.480967157838
100.48127276083
100.48132283831
100.482221916894
100.481338547848
100.481601260502
100.481610233987
100.482463814541
100.482439647716
100.482635748955
100.481669844261
100.483364709739
100.481793187576
100.481878385118
100.48192396609
100.482361281467
100.481800753196
100.481040499108
100.480995848801
100.478232744125
100.478550436045
100.48045818827
100.481990581112
100.481167170499
100.479496833594
100.480544327895
100.477692533819
100.476126469244
100.477826651383
100.4813013556
100.476900274556
100.476591947688
100.481433226795
100.478990396181
100.481446928052
100.47705257533
100.440609893528
100.435922869551
100.438567522265
100.450355446533
100.45267937382
100.441717721012
100.440417487775
100.437745670652
100.436409812638
100.43113792005
100.435026581056
100.42300488347
100.433075018463
100.449143799603
100.435768463421
100.437788018875
100.448715690011
100.47072517251
100.469262805119
100.475061208224
100.465629977626
100.468320045299
100.472612624744
100.474519015335
100.465362407634
100.455087817217
100.451566567855
100.428525550353
100.435665359101
100.441104542874
100.440877270213
100.434051139579
100.428643022555
100.442023187519
100.427290822666
100.427794921075
100.43851542432
100.441032713195
100.427567430427
100.425559970042
100.446782888599
100.477394743801
100.477600150218
100.466166427748
100.484044535182
100.468875349435
100.499377865138
100.482060551276
100.467498994348
100.4725109154
100.471146363789
100.474716608195
100.465766173253
100.468974294044
100.453499628565
100.434527585559
100.429309747269
100.435164430609
100.414390917977
100.422392641034
100.445405871821
100.442851231062
100.435954785714
100.429658239032
100.444171039318
100.432158158473
100.430880724872
100.438664504646
100.428808799201
100.427048927662
100.42694347735
100.427439064964
100.425479949923
100.44674184534
100.477377123384
100.477583308477
100.466122217468
100.48401267856
100.480696809903
100.4379369164
100.438382913156
100.438388930549
100.432217629723
100.437929430625
100.480715803516
100.482980191431
100.479338155406
100.493319037062
100.488128020159
100.468301837498
100.448116335888
100.467017097107
100.471300185704
100.467862330463
100.467861062987
100.468970295736
100.453497456759
100.434537043846
100.434745045712
100.434740839342
100.439991030618
100.441149980465
100.438009697791
100.442762469397
100.435207246416
100.428025326659
100.431426182487
100.443527945309
100.437371394269
100.451016559003
100.441400258363
100.440965801324
100.447644524269
100.437940058306
100.437914045106
100.428741075815
100.438560749929
100.438370768687
100.440858101316
100.437575782676
100.448511163537
100.470521089006
100.469150227621
100.474962933024
100.46879474211
100.499275965144
100.482915856956
100.432180953716
100.437296442438
100.437312443739
100.472376327865
100.471815234466
100.492424357953
100.488180885634
100.488175250159
100.471312311878
100.474721173745
100.465762514133
100.451577962174
100.428554071925
100.429345145083
100.435209061045
100.439995256641
100.441148932161
100.447683635115
100.447686563286
100.441672541452
100.442062842659
100.456692959616
100.451340475766
100.455745524055
100.45426891336
100.450787369791
100.449453316384
100.448715894665
100.450975738546
100.458001936357
100.458041033511
100.45114129796
100.4486982305
100.447634769322
100.440961205618
100.430754437655
100.427622456936
100.428560964423
100.435570969835
100.448990106406
100.468165864168
100.465511369538
100.467360874236
100.481922288897
100.488084395531
100.4932405549
100.479292332567
100.472338288607
100.471778145475
100.492395411575
100.466414117351
100.46021269307
100.467472097777
100.465546687172
100.458941243137
100.473916164067
100.474437371826
100.476327957088
100.476584402046
100.475926866498
100.475408654641
100.477584233471
100.480001733244
100.480174213145
100.478397473686
100.475340149911
100.471213971666
100.46705681285
100.464370506157
100.463996967776
100.467680302298
100.477492160196
100.495950051512
100.518882649683
100.554949986636
100.549003218439
100.488870043626
100.439048753946
100.389096627813
100.360932139954
100.381283367138
100.379323809382
100.377359952079
100.377872751153
100.378913689784
100.379913360793
100.381041486311
100.382345581945
100.383599001173
100.384581022314
100.385263363774
100.385688281978
100.385868602455
100.385869364097
100.385693596021
100.385339019049
100.384824028465
100.384160612333
100.38331530083
100.382310313525
100.38112459087
100.379720036406
100.378142136743
100.376669711729
100.375670188577
100.37529151106
100.375465693509
100.375693045537
100.375788826734
100.375886483232
100.375998247812
100.376077572663
100.376099742344
100.376069765859
100.375995199034
100.37589046646
100.375773255726
100.37575874134
100.375848460327
100.375892132908
100.375991164289
100.376018932544
100.376071147373
100.376092314717
100.376174936506
100.376174283265
100.376246194369
100.376280861782
100.37629809477
100.376272163839
100.376261604098
100.376157844869
100.376133097532
100.376092612326
100.376057155244
100.376020559262
100.375988668593
100.375937298506
100.375919221523
100.375868689412
100.375834181456
100.375782886795
100.37574098474
100.375657703899
100.375772301938
100.375655867374
100.375812021909
100.375848274308
100.375898177124
100.375931492604
100.37598234565
100.376018541965
100.376066586218
100.376093916945
100.376132615469
100.376161475957
100.376199285148
100.37624981811
100.376270315435
100.376250176418
100.376194088099
100.376138985568
100.376129080392
100.376043788747
100.376025019841
100.37597081602
100.375937887978
100.375856122772
100.375734253639
100.375792275938
100.375898126591
100.37592559859
100.375979502005
100.375994426127
100.376083506155
100.376101668894
100.376162644953
100.376218831308
100.376244490689
100.37621311231
100.37618602047
100.376118407413
100.376054314843
100.376036013538
100.375947732659
100.37593033438
100.375871151398
100.37584057269
100.375740959067
100.375604714674
100.375679616949
100.375798589116
100.375819358389
100.375883337346
100.375898714113
100.375989737974
100.376010357287
100.376076169889
100.376145564053
100.37618369996
100.37614497483
100.376103641945
100.376025920162
100.375966355149
100.375950628027
100.375850232289
100.375832252256
100.37576480881
100.375737838252
100.375623942421
100.375468320138
100.375562046635
100.375692177952
100.375710073344
100.375777084606
100.375797385952
100.375867912997
100.375933943491
100.375976856676
100.376062101517
100.376108699977
100.376072211248
100.376015926394
100.375924369683
100.37586142178
100.37580793848
100.375739197298
100.37572069995
100.375652218822
100.375627684612
100.375502623883
100.375326224788
100.375445898325
100.375581519581
100.375597619903
100.375664572377
100.375685324537
100.375744645411
100.375803209007
100.375866927018
100.375962853102
100.376031618406
100.375978359691
100.375906104102
100.375809552904
100.375735061734
100.375756937558
100.375711748772
100.375626484481
100.375601152668
100.375538298736
100.375513190898
100.375386075393
100.375186762507
100.375338526031
100.375468056192
100.375486704693
100.375548405877
100.375571754519
100.375659224157
100.375695519013
100.375770291328
100.375865839462
100.375939776445
100.375887326387
100.375815833994
100.375710225895
100.375636567144
100.375595297666
100.375514199918
100.37548674508
100.375429191206
100.37539776467
100.375277321278
100.375058771832
100.375238953328
100.375353177944
100.375380742906
100.375430211946
100.375463402311
100.375543222772
100.375585931292
100.375652357751
100.375768007844
100.375840195288
100.375739213244
100.375695943579
100.375587895276
100.375537868855
100.375482965375
100.375407483241
100.375373715383
100.375326809612
100.375288400558
100.375185791396
100.374951775442
100.375172969742
100.375240715826
100.375272323152
100.375319428824
100.375359173928
100.375427681176
100.37547371655
100.375497511704
100.375631321473
100.375645257248
100.375646976955
100.375609808416
100.375624144087
100.375539976053
100.375540938882
100.375447352466
100.375495949364
100.375411911046
100.375364905388
100.3752994924
100.375263374687
100.375213884023
100.375179799093
100.375106059275
100.375033685357
100.37477515889
100.374504166757
100.374789580129
100.375004961613
100.375052800507
100.375127820225
100.375159180733
100.375216947403
100.375256128241
100.37531759871
100.375352139775
100.375476118801
100.375498429312
100.375554175702
100.375268719237
100.375104902416
100.375255921382
100.375254703299
100.375238471902
100.375374485808
100.375247358709
100.375368784718
100.375440513692
100.375406960553
100.375283989081
100.375242886237
100.375182996249
100.37515818336
100.375081727021
100.375072728192
100.37498530092
100.374926727263
100.37472419484
100.37432393913
100.374717034926
100.374902778666
100.374946965986
100.375017894904
100.375070521722
100.375067986093
100.375161517805
100.375212391601
100.375249406719
100.375375203397
100.375388207537
100.375252689963
100.375266234566
100.375274916051
100.375340996199
100.375187977909
100.3752544968
100.375317785435
100.375155384343
100.375160607886
100.375119344066
100.375036259996
100.375015994878
100.374960562806
100.374895062447
100.374846155924
100.374670565329
100.374275748491
100.374689583968
100.37482789018
100.374863367188
100.374910438673
100.374964766695
100.374995637011
100.37506028385
100.375139606334
100.375122200283
100.375193151009
100.375183760796
100.375215217524
100.375226116849
100.375251226403
100.375215344104
100.37528722993
100.375333684325
100.375389541965
100.3754328192
100.375492115554
100.375540660632
100.375602721892
100.375654523077
100.37571209903
100.37577774274
100.375837465849
100.375885491958
100.375942002638
100.37599119601
100.376045408168
100.376095604905
100.376146689995
100.376183014815
100.376141414285
100.37620239471
100.376275167069
100.376245175398
100.37632579127
100.376329715776
100.37628326779
100.376304870519
100.37611707743
100.37599447837
100.375909467115
100.375710744031
100.375612918481
100.37555491947
100.375429416942
100.375351319139
100.375282347138
100.37520973177
100.375108628756
100.375051358251
100.374990170845
100.374922326573
100.374826420656
100.374800900375
100.374803986714
100.375060136173
100.375051500147
100.375169915453
100.375241280172
100.375302857784
100.375314105634
100.37537199386
100.375452533693
100.37550986536
100.375546499818
100.375619126738
100.375696711728
100.375757099934
100.375795237514
100.375935427891
100.376151126443
100.376275999212
100.376227017824
100.376238737337
100.376266219596
100.3761885101
100.376223307077
100.376252731158
100.376271231555
100.376365039744
100.376365554482
100.376346298493
100.376198695089
100.376067975988
100.375867946775
100.375636815882
100.375413726038
100.375319322877
100.375197889828
100.375017718225
100.37483103464
100.374641291632
100.374473118744
100.374326756295
100.374182981582
100.374047863927
100.373877438445
100.373741372962
100.373596901414
100.373430735641
100.373281986203
100.373419922257
100.373677473346
100.373868597789
100.373960541218
100.374090439153
100.374230209336
100.374364805493
100.374463623255
100.374598477025
100.374721954454
100.374894263992
100.375191659548
100.375211564266
100.375374222419
100.375516164195
100.375795713226
100.375627762016
100.375635997666
100.375976327957
100.376027532261
100.376155664337
100.376142034453
100.376118498359
100.376075251102
100.3760665856
100.376114627796
100.376152023057
100.376177412941
100.376234269733
100.376279143764
100.376301579384
100.376380853159
100.376384354627
100.376359968748
100.376257994057
100.376135812673
100.37586824256
100.375714814732
100.375598502908
100.375455893352
100.375231622421
100.375043673133
100.374930190093
100.374760508118
100.374543798728
100.374440710776
100.37428581026
100.374120470482
100.373922394016
100.373727109176
100.3735364058
100.373378901005
100.37316198901
100.372947732339
100.372678665266
100.372432264044
100.37222631633
100.372065912913
100.371786362741
100.371553396009
100.371551789194
100.371922111711
100.37221480517
100.372421104048
100.372497498785
100.372685781685
100.372906336873
100.373131789722
100.373307880144
100.373507686955
100.373654809018
100.373817449542
100.373986424125
100.374206015196
100.374424400751
100.374583857068
100.374826498021
100.374868389267
100.375049657722
100.37489438692
100.375031098325
100.375201518766
100.375294281125
100.375501551592
100.376034427868
100.376105868903
100.376093689136
100.37608000677
100.376134748711
100.376160797705
100.376195055512
100.37621730499
100.376258460058
100.376286124874
100.376337189639
100.376404098622
100.376416894816
100.376387194495
100.376310776813
100.376271691184
100.376230875521
100.376058354995
100.37583949761
100.375575446705
100.375348498299
100.375160249965
100.374837972749
100.374832503367
100.374739697224
100.374561672149
100.374533906446
100.374382122815
100.374242910893
100.374127088611
100.373978982652
100.37375628196
100.373746310307
100.373536209666
100.373341158785
100.373165763881
100.372895122293
100.372634735204
100.372385140308
100.372194558111
100.371830613912
100.372032770018
100.372359316316
100.372623507888
100.372879724849
100.373135225046
100.373286599465
100.373488961641
100.373729889293
100.37377751972
100.373835479594
100.374019449719
100.374184064862
100.374406287166
100.374572420243
100.374701182312
100.374685980464
100.374617777567
100.374631333983
100.374646280313
100.374778526041
100.374699461516
100.374871732312
100.375805488426
100.375835032732
100.376090503212
100.376206973812
100.376229454693
100.376215756864
100.376203108871
100.37624052981
100.376271114561
100.376288824634
100.37634126551
100.376364061715
100.376417060735
100.376470063756
100.376509970381
100.376468654783
100.376448034422
100.376383513311
100.376291700258
100.376107246068
100.375954608827
100.37562295402
100.375492812827
100.375295926325
100.375222420679
100.375066227261
100.374955645663
100.374758288637
100.374823361362
100.374733733755
100.374585972792
100.374648208635
100.374481710446
100.374368175803
100.374258005699
100.374088822458
100.374137214225
100.373963205015
100.37377497438
100.373607186743
100.373429678415
100.373239668792
100.372990796964
100.372730224731
100.372467605869
100.372172523385
100.371844546468
100.371470914729
100.371096424703
100.370495501284
100.370806097692
100.37130635667
100.37175638783
100.371965543303
100.372229131071
100.372501226736
100.372771690525
100.373035219466
100.373220690297
100.373407921593
100.373614744448
100.37390487417
100.374087488575
100.374049903341
100.374089296753
100.374230892349
100.374369570668
100.374624659289
100.374626210706
100.374617700082
100.374599381642
100.374547223118
100.374354933783
100.374257906649
100.373832470265
100.374771911723
100.373059704962
100.372397516035
100.372340271241
100.371760391008
100.371326441976
100.370755502717
100.370067343469
100.369232838209
100.368385816802
100.366215722954
100.36798485314
100.359418098545
100.359156216545
100.364052272994
100.363485893638
100.36525761333
100.366445323942
100.367089999017
100.368136736619
100.369117600572
100.370014038051
100.37080640582
100.371498722748
100.372066508572
100.372657018948
100.373084766307
100.372901457327
100.373672966227
100.372834312345
100.374508183757
100.374513016736
100.374000809244
100.374171001751
100.37403886155
100.37391101746
100.37365555184
100.373240947134
100.372672110355
100.371898584264
100.370749762881
100.370184852934
100.367276317829
100.36757840861
100.36920494395
100.36980282999
100.368149016563
100.36427660073
100.36253750921
100.36252550299
100.349051734895
100.353596363315
100.349541606026
100.35517378437
100.356435782673
100.357151046881
100.360292097828
100.359732311814
100.357083314542
100.355836881614
100.353613063512
100.356363656499
100.359061884475
100.361253497672
100.362942405173
100.363771176314
100.361598760032
100.361142829305
100.36660513953
100.370739853409
100.373279912469
100.374226566696
100.374656986523
100.374739341499
100.374704123909
100.374717273816
100.374843805584
100.374985866305
100.375143166223
100.375301170599
100.375455622528
100.375601446486
100.375727618664
100.375884812744
100.375906258801
100.376009747578
100.376025905946
100.376088255045
100.376110919846
100.376121307099
100.376157693403
100.376197735531
100.376220289825
100.376290151132
100.376310751787
100.376323829955
100.376371538543
100.376424323606
100.37644473353
100.376441889316
100.376456651943
100.376435709707
100.376419558515
100.376360523666
100.376387458378
100.376398948051
100.376463831143
100.376476655431
100.376536943424
100.376498831479
100.376383501813
100.376261491071
100.376181479261
100.376075499052
100.375999306762
100.375811130863
100.375614251614
100.375247612523
100.375218508746
100.37501804661
100.375031344217
100.37496377013
100.374943563107
100.374787111276
100.374936382584
100.374785880321
100.374841962465
100.374752140727
100.374674928731
100.374503173333
100.374529371218
100.374379160171
100.374273231459
100.37416447114
100.374023271492
100.373859048411
100.373650826891
100.37362135574
100.373405297605
100.373184539497
100.372963515165
100.372729232188
100.37247158691
100.372198699563
100.371874858581
100.37208306042
100.372434988229
100.372687473309
100.372926045224
100.373153771679
100.373374112693
100.373594296099
100.373532177113
100.37366972343
100.373864576291
100.374032149244
100.374216201296
100.374330030485
100.37448617822
100.374437210743
100.374521417209
100.374685471912
100.374776564708
100.374759134057
100.374689930261
100.374640195606
100.37452306318
100.374299819789
100.374056627327
100.373882653167
100.374157183073
100.374405516071
100.374548903655
100.374857459424
100.37572644101
100.376067794938
100.376145868535
100.376142208558
100.376212024691
100.376242101166
100.376280485411
100.376306590036
100.376330409129
100.376392724536
100.376430644315
100.376516061917
100.376511212688
100.376523326392
100.37648377407
100.376401597016
100.376353035897
100.376291061462
100.376123330227
100.375954168432
100.375798607747
100.375688309281
100.375372867288
100.375289671064
100.37500159904
100.375082384651
100.374918163573
100.374987653457
100.374982808974
100.375020785338
100.37491362809
100.375040057561
100.374913824766
100.374950726734
100.374867302518
100.374806799106
100.374676494096
100.374677245964
100.374545066127
100.374433147191
100.374317922816
100.374214746569
100.374057784411
100.373985809242
100.373795178899
100.373596848024
100.373377365951
100.373168286213
100.372945941123
100.372671191164
100.37237905854
100.3720877012
100.371754497606
100.371315463507
100.371048278816
100.371363193068
100.37180955527
100.37205088814
100.372365953424
100.372648821896
100.372908656226
100.373136151777
100.373363787393
100.373578980741
100.373798872246
100.373993101056
100.373953147046
100.374089845448
100.374222230484
100.374347512557
100.374491283511
100.374644974771
100.374620238201
100.374678151475
100.374772112153
100.374911928575
100.374876704746
100.374879246094
100.374822026083
100.374601799087