/*--------------------------------*- C++ -*----------------------------------*\
| =========                 |                                                 |
| \\      /  F ield         | OpenFOAM: The Open Source CFD Toolbox           |
|  \\    /   O peration     | Version:  v1612+                                |
|   \\  /    A nd           | Web:      www.OpenFOAM.com                      |
|    \\/     M anipulation  |                                                 |
\*---------------------------------------------------------------------------*/
FoamFile
{
    version     2.0;
    format      ascii;
    class       volScalarField;
    location    "0.6";
    object      p;
}
// * * * * * * * * * * * * * * * * * * * * * * * * * * * * * * * * * * * * * //

dimensions      [0 2 -2 0 0 0 0];

internalField   nonuniform List<scalar> 
79587
(
100.070478116316
100.072422549154
100.069046855866
100.073393937893
100.080435623258
100.080551286014
100.07850691701
100.079031868883
100.079145000267
100.079519318319
100.079806713595
100.079618923907
100.081497347492
100.081185517962
100.083523419764
100.083481323863
100.080163528702
100.075516817175
100.074498950226
100.074495948721
100.075486238812
100.07520317716
100.074421620869
100.07596656973
100.082375722895
100.082274228167
100.076617723742
100.074949134053
100.074922488964
100.074105506737
100.073978148423
100.075046143598
100.074957731196
100.076572609722
100.082035460425
100.081939073108
100.075764577627
100.074379863743
100.075189450198
100.075260389202
100.074357248984
100.074362004842
100.075429565463
100.079994268476
100.083137622822
100.082994101687
100.076095663957
100.075643397398
100.073356954802
100.072648080762
100.072775584964
100.072642887347
100.072050095834
100.070728330075
100.07184547766
100.073163037821
100.07326188584
100.072355146598
100.071389527711
100.070165683112
100.069836324582
100.070426792225
100.070350871809
100.06967545538
100.070177674254
100.071372874005
100.072202802018
100.073288160348
100.073363747981
100.071948579637
100.07087033219
100.072224413605
100.072717498412
100.07282207667
100.072608529523
100.073313631011
100.075852082481
100.076574019805
100.074164264406
100.077065531638
100.079980496473
100.081331845605
100.079009307943
100.078818630219
100.080210928404
100.07849211862
100.076130590772
100.071900669073
100.077178013242
100.065947508289
100.054945827546
100.060714224703
100.061809805157
100.072754780675
100.068425397263
100.069054507891
100.071378809968
100.069503451304
100.068021332284
100.067436170927
100.070156254233
100.071973160001
100.067832768024
100.067071043731
100.069270066137
100.066009127987
100.06489778394
100.066129133831
100.066130907475
100.064944131931
100.066020159894
100.069213918732
100.066945688538
100.067380545003
100.072018963171
100.070594489123
100.067725987881
100.068165812341
100.069553679208
100.07137363148
100.068958894139
100.06826589558
100.073015368495
100.073039804853
100.070020923675
100.073132846625
100.079343949162
100.0840322174
100.076976108779
100.076919417918
100.081724757393
100.09766812982
100.067365651029
100.06788701324
100.052196645973
100.025211315089
100.026147457681
100.021972953666
100.022271740137
100.028559073454
100.059979117822
100.071186553422
100.066891957525
100.066632254475
100.073324062599
100.061541838676
100.062238192029
100.062072544739
100.062305394194
100.070061431968
100.065599146227
100.065581620953
100.069999295353
100.06232391623
100.062137471215
100.062273694507
100.061404948453
100.060107130352
100.062109061195
100.060066354911
100.020434032149
100.022852292596
100.02365869025
100.023294279472
100.022688850271
100.022775846554
100.024247834884
100.024856896292
100.028993344973
100.026241795956
100.027234007635
100.030750250781
100.030756317573
100.027285145952
100.026263259616
100.028808254881
100.028310845525
100.021704464956
100.022519651368
100.029089902525
100.029764865137
100.028361806835
100.028013095268
100.029286764092
100.029192657339
100.028373559252
100.0286871936
100.028853593593
100.023903115875
100.024742555522
100.025986750262
100.025944810474
100.024672216966
100.023768335937
100.024670647067
100.024001797409
100.028192042006
100.029533139343
100.030125427005
100.030279293597
100.029657120728
100.029760058383
100.030419593566
100.030301711456
100.029735941423
100.029926603852
100.030070328488
100.030092449606
100.029266233786
100.02895507183
100.028894340509
100.029144842683
100.028692229536
100.028491234817
100.029737561758
100.028005715427
100.027829165169
100.028012276167
100.027839652321
100.028128017654
100.028448464586
100.02832861795
100.028188275284
100.027976163844
100.028148753042
100.028134174064
100.028138474939
100.028024731695
100.029759991019
100.029716909583
100.029994804219
100.029893088655
100.028006032016
100.025686777093
100.025716314699
100.025601561947
100.02569364936
100.025622885113
100.025435822629
100.02545682
100.0256698401
100.025723528497
100.025627345498
100.02578082913
100.025747519772
100.025820643707
100.025779350182
100.025760304642
100.02799852992
100.0281139539
100.025797341786
100.023882850538
100.023783388404
100.023806185544
100.023724779611
100.023811706661
100.023912213152
100.02400814927
100.023749914841
100.02351937219
100.023698572541
100.023629547553
100.023779704818
100.023768156664
100.023877544502
100.02386311463
100.023859599169
100.022166136275
100.022174703205
100.022063395309
100.022070612269
100.021983884115
100.021984816427
100.021855459954
100.022105908317
100.02197484073
100.02165180062
100.021880126009
100.021803644556
100.021962908449
100.021977932695
100.022126772957
100.022150248857
100.020368232624
100.020397580051
100.020366590481
100.020197780699
100.020167602991
100.020034062726
100.019983904455
100.019702999533
100.019341328575
100.019397572221
100.019719206777
100.019865604161
100.019833465915
100.020014162864
100.020060572581
100.020292334906
100.018106173302
100.018265680026
100.018298203038
100.018190118632
100.017925321548
100.017846688679
100.017618663618
100.017535926894
100.017423320638
100.016577737324
100.016609313834
100.017373912311
100.017372728129
100.017474342132
100.017680332938
100.017776011039
100.014487327817
100.015121328212
100.01544454297
100.015455314082
100.015145868737
100.014595290083
100.014721897114
100.01435400709
100.013952065567
100.014207737991
100.012691617413
100.012671603287
100.01411388674
100.013813907913
100.014306978414
100.014586290579
100.009959419013
100.008826573669
100.010199292124
100.011159110564
100.011113150989
100.010165808886
100.008820794725
100.009977747901
100.009617612241
100.007707363412
100.00926528833
100.005849264968
100.005817370939
100.009254723821
100.007711636479
100.009654831817
99.9983346580281
99.9979566878481
99.9923009788074
99.9952048797607
99.9989968292641
99.9988466238119
99.9949302856504
99.9922766950858
99.9979382955264
99.9981375541652
99.9907789944817
99.9952692676214
99.990860607527
99.9908212024079
99.9953075455361
99.9913284323301
99.9984785397026
100.006642938278
100.004995864387
99.9984423329103
100.004658773572
100.006562668342
100.006349850274
100.004260951757
99.9978939553101
100.004476492912
100.006212262332
99.9981211528059
99.9944983774647
100.026151121498
100.048696144834
100.048499175513
100.026092454977
99.9923207537109
99.9926458878716
100.085827593636
100.170424386386
100.107420057765
100.107658176335
100.093482195286
100.081550290689
100.070476747058
100.067402021719
100.062707631765
100.061551735697
100.073633134152
100.066004978999
100.065775020537
100.07300167132
100.060864442495
100.061885248115
100.067035358951
100.069895543955
100.080886302105
100.092578263654
100.185112525201
100.202650057273
100.202848927923
100.185698506197
100.187586442567
100.177460923017
100.201867725598
100.242842142524
100.154314102835
100.154945078541
100.205610612756
100.169345565432
100.194143492663
100.21863590938
100.159165149484
100.158833777939
100.218064334378
100.193371743753
100.168276904546
100.204252174484
100.153158069736
100.152649447992
100.200681051518
100.176875795756
100.186617085127
100.276016197349
100.321741267025
100.292302924723
100.292235410233
100.322266480594
100.29550773609
100.276811618965
100.400838099497
100.430673019423
100.384418070686
100.402008580084
100.403142558208
100.354835552005
100.297936400424
100.327598224987
100.274838540374
100.396265682354
100.430194345427
100.386489964642
100.388118384771
100.313807281749
100.315454535435
100.243970158748
100.291630563266
100.377209667395
100.422715388647
100.389958471025
100.394730333298
100.330612948616
100.282821295332
100.323147191934
100.302750266014
100.306944987908
100.330478688085
100.241380168788
100.241227229642
100.330409739087
100.306562273977
100.3020294639
100.321873354605
100.281192924232
100.328955687209
100.314045162465
100.312386974787
100.326436416623
100.296301832268
100.294540466627
100.353680576968
100.401411947905
100.383972051544
100.399449679479
100.430304981699
100.430288074166
100.399724558692
100.37079611983
100.3708307566
100.448197156239
100.470564647009
100.461888594939
100.461803008742
100.462501365411
100.45061297385
100.434624480743
100.477045251842
100.477118131764
100.47430545792
100.468424658198
100.464505244867
100.459262643702
100.444474040866
100.442921455058
100.445110096811
100.454971902353
100.425332039881
100.425185642176
100.42683137052
100.432932022006
100.452724344232
100.450405995059
100.431045319514
100.390402378516
100.398032197278
100.376430453375
100.408688907155
100.397106366419
100.396940527178
100.408199730949
100.375578935684
100.396863084615
100.389084912999
100.393024935297
100.388220366732
100.386752938478
100.385262948307
100.402199612011
100.442345244796
100.444245110198
100.450564641709
100.462652688022
100.474483036064
100.471854591218
100.479628770118
100.479687666449
100.471938140755
100.471316500626
100.471385072847
100.476567315118
100.473133033275
100.475470884823
100.475829840295
100.478351190813
100.472166700486
100.475611045265
100.47642908337
100.475291679847
100.476151003519
100.47716587103
100.474572301997
100.475643375117
100.47473094268
100.474033297478
100.472324187916
100.468578202193
100.465297502697
100.469466246446
100.459033923028
100.476229663595
100.475813892672
100.473776335568
100.471881058888
100.477076611635
100.471809682823
100.470042182118
100.474487335784
100.45695112425
100.458381341848
100.459322855278
100.473013553727
100.467341273524
100.465312777146
100.463951237905
100.44720645357
100.440861969986
100.446196814357
100.431639308078
100.431657436073
100.446081494423
100.440566603059
100.446807551351
100.429785681981
100.449002929219
100.451244091955
100.431112996488
100.42514146273
100.423929517094
100.424289012052
100.444408117137
100.458679071512
100.465310861649
100.46439313489
100.469120614035
100.475220697707
100.472494928813
100.478772388759
100.476644119235
100.47573671422
100.476220980334
100.47643667493
100.475689924263
100.475785140567
100.475607644063
100.475294752082
100.477261326942
100.476496089921
100.476697058475
100.477101622649
100.476453823516
100.475734459652
100.476647120897
100.476522089585
100.476761054583
100.47589035688
100.476116520417
100.47558629735
100.47638831317
100.476262119782
100.47488708688
100.474992307371
100.475602238579
100.474664414229
100.473251741119
100.474089688801
100.472520089145
100.47393196751
100.474161370754
100.474675202549
100.473827548794
100.474217923926
100.472480121314
100.472210888421
100.473579969664
100.477316506179
100.47219490695
100.471222975263
100.475079310567
100.473337954961
100.475949819954
100.470800443252
100.433633415394
100.428859850614
100.432526941222
100.444034753326
100.445992981083
100.434989861906
100.433102540188
100.430353866963
100.4287348821
100.424032241385
100.428254105559
100.418415771949
100.427313326003
100.444926178389
100.432050820014
100.43613061139
100.446700948408
100.468978690373
100.467849618385
100.472453090743
100.462077547515
100.464781210832
100.467106721439
100.467924663244
100.458650002041
100.448176202725
100.445096335999
100.422371076042
100.428563479578
100.435312781699
100.434169999949
100.427807223338
100.421718129299
100.435224110869
100.422532593878
100.421997670965
100.434777110932
100.43950034016
100.425553835911
100.423541328534
100.445976757192
100.477462385595
100.477899512648
100.465996180621
100.482659018494
100.466188282609
100.494730896225
100.477321120687
100.462407611099
100.46610235583
100.46506483172
100.468347046416
100.459577443703
100.462969066961
100.447524095492
100.428360160056
100.422893092243
100.428721222684
100.408851543758
100.416055348745
100.439368277047
100.436600839371
100.429711347716
100.423327750629
100.437506450506
100.426192590209
100.424769987123
100.432632291239
100.423572412722
100.42370862005
100.423628128304
100.425234581474
100.423450972942
100.446018583606
100.477435367799
100.477905887595
100.465841241878
100.482388755255
100.478782209051
100.435065280902
100.433796313072
100.434099407402
100.427969148072
100.435279133436
100.478959635971
100.478498760747
100.47353055272
100.487284801698
100.48182003426
100.462234235129
100.441803092309
100.460822399376
100.464971505346
100.462044411176
100.46190164641
100.462822088427
100.44747965268
100.428351020461
100.42871470974
100.428717896957
100.434129873794
100.435293330554
100.43180982719
100.436089590451
100.429411767162
100.422080254359
100.425987617877
100.438057710045
100.431546535464
100.444757722051
100.432955603084
100.433116237881
100.440739063182
100.429733067793
100.4295990226
100.423430386686
100.433596532841
100.435581128016
100.439912677162
100.436420445778
100.446877309501
100.468715218922
100.467629519575
100.472078322172
100.465671397635
100.493845557202
100.477841822034
100.427485333309
100.431892286449
100.432234865932
100.466321278582
100.465484185952
100.486334898325
100.482026726962
100.48172769982
100.464544776764
100.46771231543
100.458994244433
100.444471259698
100.422044408867
100.422754551616
100.42852832469
100.434139009285
100.435296011541
100.441020124451
100.441228358342
100.434578834976
100.435227489382
100.451042274007
100.445483552343
100.449752969385
100.448639298338
100.444048220839
100.441847471622
100.441030562199
100.440357488511
100.448039300083
100.447974295672
100.440455053413
100.441899413859
100.441787433123
100.433650706677
100.424660909707
100.421807430974
100.423925344655
100.43214939037
100.444490712578
100.464241924774
100.461505916274
100.461468576631
100.476394491186
100.480909773155
100.486266205527
100.472887230576
100.465895755805
100.465098292996
100.485858770662
100.460041776602
100.45517464809
100.46243612009
100.460008871318
100.453129319196
100.468213721269
100.469088359016
100.471242447826
100.471388116257
100.469756279097
100.469078495885
100.47135515634
100.474248733759
100.475615932453
100.476000136694
100.475961991717
100.475995109474
100.475747880832
100.475463079743
100.47510402679
100.475560569049
100.477587605372
100.484840866532
100.499752496986
100.530713458592
100.528115260565
100.472736624983
100.42713409667
100.381274861909
100.35532022431
100.374391665684
100.372317701614
100.370694675928
100.371198704863
100.372153988449
100.373070177042
100.374139848523
100.375490862778
100.377017230468
100.378507660575
100.379745877246
100.380572289383
100.380933094383
100.380890914823
100.380666046232
100.380236935999
100.379598677888
100.378746085482
100.377642672991
100.376338405845
100.374861887423
100.373228906201
100.371533209066
100.36993353601
100.368530023979
100.367378030636
100.366504941931
100.36593541044
100.365728665577
100.365914209317
100.366517707426
100.367530690798
100.368885107083
100.370409285118
100.37189331282
100.37259227674
100.372602021637
100.37248860454
100.3725826154
100.372435737026
100.372511470788
100.372857541914
100.372789658588
100.372919816695
100.372969244547
100.373294400559
100.373476061623
100.373709851445
100.373980900385
100.374024815959
100.374170433116
100.373986176039
100.373896519706
100.373758707511
100.373626384334
100.373490686746
100.373369285576
100.373210702235
100.373123753634
100.37298794896
100.372875350995
100.3727579084
100.372637910062
100.372477491607
100.372492886318
100.372412794357
100.372627789745
100.372730720497
100.372851647817
100.372959336037
100.373101300708
100.373198647627
100.373331388191
100.373465185206
100.373607596627
100.373739459064
100.373899014514
100.374084073879
100.373766456385
100.373583314673
100.373283990068
100.373122939002
100.3728246493
100.372840044062
100.372728108078
100.372794631279
100.372432573299
100.372412171936
100.37245724705
100.372372173806
100.372374973447
100.372715975902
100.372672685361
100.37276174605
100.372722319337
100.37299545689
100.373155810344
100.373469303509
100.373616110723
100.373484590625
100.373348941949
100.373002424445
100.37285976507
100.372642966045
100.372690874122
100.372611777909
100.372607371959
100.372327224425
100.372351891289
100.372354734884
100.372302024436
100.372291611821
100.372510289673
100.372537739228
100.372610163458
100.372571233934
100.372762556015
100.372854282812
100.373195573416
100.373362218376
100.37322246579
100.373063297975
100.372720320565
100.372677877993
100.372502981564
100.372508219348
100.372469561338
100.372437547304
100.37225530543
100.372283406658
100.372266173471
100.372223740149
100.372220810668
100.372359010656
100.372378471782
100.372333934952
100.372562581314
100.372544304353
100.372638695521
100.372941258672
100.373102487379
100.372997022549
100.372825732405
100.372504142548
100.372400298807
100.372392752101
100.372255687997
100.372318281129
100.372291487831
100.372187844636
100.372217734372
100.372204976525
100.37214740954
100.37215339996
100.37222129068
100.372241521751
100.372197380493
100.372288465507
100.37230880768
100.372373198943
100.37269058714
100.372874558734
100.372729953006
100.372562293315
100.372246387389
100.372224970495
100.37223210583
100.372163218331
100.372161452688
100.372167207186
100.372161298462
100.372118741994
100.372145892798
100.372124934397
100.37205818271
100.372079969751
100.372111421227
100.37212349486
100.372132618492
100.372120926301
100.372182984467
100.372217407441
100.372484033666
100.372629507385
100.372533769162
100.37239031624
100.372139991936
100.372098887913
100.372068396197
100.372082077652
100.372072478104
100.372069685474
100.372041912431
100.372055481001
100.372003412162
100.371955198581
100.371997659362
100.372028281724
100.372018198485
100.372035217308
100.372031989039
100.372049813849
100.37205763618
100.372298845298
100.372444839349
100.372289374419
100.372190331186
100.371987905491
100.372014833321
100.371978111295
100.371978306755
100.371971929713
100.371986211769
100.371953007138
100.371948601164
100.371862200777
100.371847972873
100.371898477755
100.37191870632
100.371913831782
100.371930812876
100.371926415486
100.371951615479
100.371896284254
100.372120769884
100.372219553737
100.372240174211
100.372192082054
100.372141443602
100.372087242615
100.371934260078
100.37191415996
100.371876791332
100.371818608792
100.371887522049
100.371868933434
100.371844784415
100.371848741886
100.371833082724
100.371772091708
100.371632489405
100.371597607382
100.371659091481
100.371598429489
100.371681498955
100.371746548554
100.371780511437
100.371781384359
100.371793588377
100.371825017945
100.371842329031
100.371795640272
100.371924060205
100.371971499082
100.372199610867
100.372101784294
100.37214030725
100.372143549168
100.371982518552
100.371906958909
100.371956553501
100.371840670372
100.371986407317
100.371905074908
100.371873090324
100.371760988843
100.371766492772
100.371751102101
100.371714807313
100.371683710094
100.371708392605
100.371674252668
100.371615294156
100.371489460198
100.371469746265
100.371467647258
100.371581095397
100.371613791399
100.371658575568
100.371645105431
100.371655156021
100.371680518987
100.371737525823
100.371732970164
100.371873013881
100.371852136855
100.371770875767
100.371819186624
100.371795558965
100.371815861119
100.371692051212
100.371681721367
100.371829031206
100.371646963463
100.371687790643
100.371651122151
100.371629675533
100.371599601303
100.371603397443
100.371550012273
100.371509292504
100.371376007081
100.371414719928
100.371336057034
100.371471757887
100.371498585395
100.371530456813
100.371542798315
100.371580534331
100.371602449333
100.371613705547
100.371648331845
100.37164988172
100.37162053816
100.371604588814
100.371584632686
100.371749531577
100.371730528829
100.371786785455
100.371830182635
100.37187348568
100.371899484952
100.371918697096
100.371928345645
100.371939350033
100.371956353524
100.372012784506
100.372056585555
100.372093448094
100.372119001094
100.372174772107
100.372232371905
100.372304633107
100.372401726099
100.3725325687
100.372657876705
100.373030636482
100.373166726131
100.373513079766
100.373597356526
100.373875386887
100.374103870616
100.374096569838
100.374322528298
100.37422961104
100.374101940428
100.374098302682
100.373781733126
100.373615772607
100.373534263576
100.373354531608
100.373217919362
100.373089392481
100.37297002446
100.372826972087
100.372727880741
100.372633660652
100.372544025597
100.372415505056
100.372352131511
100.372268449993
100.372428165591
100.372345808176
100.372560567422
100.372681399112
100.372793708402
100.372861594068
100.372965978317
100.37310672578
100.373221675401
100.373330698657
100.373478340957
100.373641304079
100.373760467304
100.373866300624
100.374068020043
100.374240751797
100.37427121835
100.374091693045
100.373798398934
100.373334270451
100.372805466449
100.372987762683
100.373135694557
100.373620972035
100.374007864031
100.374227274873
100.374381133045
100.374312651757
100.374169072531
100.373943581277
100.37362123182
100.373119205883
100.37303569754
100.372952295396
100.372717154342
100.37255417196
100.372152212112
100.371947830511
100.371807088457
100.371654844846
100.371550653311
100.371390777357
100.37129297775
100.371186989672
100.371082820981
100.370958943818
100.371249985649
100.371532788807
100.371691961493
100.371748382357
100.371855898477
100.371975675592
100.372122980238
100.372218228566
100.372369523484
100.372500050472
100.372689702157
100.373116594381
100.373143505576
100.373358556161
100.37354728767
100.373924681123
100.37361463289
100.373554213097
100.37371228717
100.373457103513
100.373122482188
100.372395621674
100.372231759885
100.372534871862
100.37292083023
100.372866767625
100.372930318463
100.373104306476
100.373235985567
100.37338054768
100.373719997388
100.374110323105
100.37432015583
100.374440964935
100.374392099096
100.374220860596
100.373897342756
100.373557551271
100.37345317293
100.373137633654
100.372734447192
100.372169625381
100.37210141408
100.371922313351
100.371644471533
100.37141183064
100.371261699437
100.371082380415
100.370872767965
100.370689980696
100.370519597734
100.370429472152
100.370261585972
100.370122433688
100.369919230481
100.369783503996
100.369669892236
100.369626424889
100.369450220358
100.369315126645
100.369547987387
100.369960699929
100.370142378832
100.370220875308
100.370134495965
100.370218478396
100.37032446647
100.370492233072
100.370610244357
100.370773064975
100.370878854153
100.37104000206
100.371200520079
100.371437681565
100.371750766472
100.371890741148
100.372312498738
100.372332249692
100.372530971625
100.372242058019
100.372621269155
100.37294837288
100.372991284607
100.37299914999
100.372429342343
100.37242040664
100.372585473857
100.372621960753
100.372879813264
100.373143151553
100.373079815117
100.373311433257
100.373318038498
100.373506035538
100.373809173714
100.374218528785
100.374397394849
100.374519058674
100.374407518281
100.374418725685
100.374333238763
100.374064707516
100.373656752748
100.37320612092
100.372794102837
100.372255644053
100.371670281779
100.371450983194
100.371365467975
100.371157442481
100.371046473264
100.370903255327
100.370741271101
100.370603981694
100.370499921595
100.370272622494
100.370261937215
100.370067950047
100.369886290951
100.369749817362
100.369495483326
100.36927185201
100.369056415872
100.368911013958
100.36871948339
100.368936520164
100.369207277946
100.369438166659
100.369649039996
100.369875587568
100.369956352797
100.370115987098
100.370282761207
100.370477590992
100.370572410623
100.370753120152
100.37093910323
100.371168254509
100.371292587785
100.371572779008
100.371514166876
100.371159391055
100.371509263911
100.371713781818
100.372032758524
100.37198371801
100.372099144731
100.373473970058
100.373246993096
100.373075052767
100.372433056865
100.372321947767
100.372737293502
100.372840783302
100.373253018723
100.373156359788
100.373348895777
100.373385302048
100.373864833262
100.374131168937
100.374475942502
100.374636635192
100.374517500704
100.37460590579
100.374474826414
100.374368308503
100.374077348675
100.373730393051
100.373202250114
100.372833373648
100.372612712137
100.372284645327
100.371960832237
100.371610985691
100.371227391661
100.371240884034
100.371158997006
100.371047225456
100.371140284299
100.370929569931
100.370798454975
100.370725858004
100.370626075984
100.370853972714
100.370625241549
100.370412051266
100.370279757205
100.370115184874
100.369926805386
100.369653965772
100.369399112334
100.369147481344
100.368872704509
100.368545292001
100.36817573345
100.36781980436
100.367307316062
100.367575760242
100.368027817891
100.368412447617
100.368621215033
100.368840799924
100.369091675995
100.36933683124
100.369612551104
100.369765727477
100.369929032586
100.370125392516
100.370426216992
100.370599877052
100.370476751658
100.370511362446
100.370640995229
100.37077574887
100.371048547089
100.371111684969
100.37108827128
100.370860292289
100.370754938341
100.370819107489
100.370854587339
100.370905401407
100.372319747054
100.369517143962
100.36839799118
100.368003452089
100.367242623013
100.366642659423
100.366217576643
100.36575329606
100.365326041232
100.364778061646
100.364042992369
100.36319559407
100.359985053141
100.356956821463
100.363206280152
100.362742246574
100.36357683902
100.364874691084
100.366303967321
100.367317093676
100.36811412824
100.368711509258
100.369164703122
100.369543750802
100.36974414601
100.36997240433
100.370558911603
100.369108452566
100.371050088731
100.368455576278
100.372266545952
100.372183354008
100.372426349196
100.372392564634
100.372586679401
100.372744919538
100.373063589743
100.373054529232
100.372455680885
100.371499319324
100.370311639022
100.368583045181
100.367098390979
100.366154622594
100.369525865591
100.372124572862
100.368964355392
100.364658747857
100.36218998566
100.361333052092
100.352978397501
100.356433492806
100.35304676861
100.356208775605
100.355813965477
100.356958693303
100.361315702464
100.361241985625
100.358899644918
100.360464846434
100.35638710552
100.357482239546
100.358937198692
100.359561389116
100.360497818383
100.361938151531
100.361604561555
100.364216874753
100.366693487758
100.368576907296
100.370497653366
100.371393128527
100.371496487945
100.371581134944
100.371512427951
100.371986348696
100.37215456007
100.372299255033
100.372427595162
100.372576561964
100.372700562846
100.37282437921
100.372963069751
100.372822279133
100.372575518533
100.372743364988
100.372566470317
100.372715242973
100.372960419855
100.372597182463
100.372710918726
100.373085275756
100.373199483869
100.373144648088
100.373264916873
100.373677231385
100.373961066281
100.374312215283
100.374468619069
100.374597719108
100.374608081194
100.37440094991
100.374124644516
100.373715288921
100.373849593794
100.37405668595
100.374416508017
100.374573269203
100.37465079102
100.374617887737
100.374447234015
100.374204916289
100.374082489469
100.374035411816
100.373769975473
100.373436360406
100.372947397764
100.37231962364
100.372050565471
100.37188117093
100.371664421039
100.371467932859
100.371365761459
100.371235575723
100.371500001891
100.371418900823
100.371686332066
100.371610392261
100.371496904246
100.371361333231
100.371585901126
100.371438795856
100.371341855015
100.371203711619
100.371062752277
100.370895516013
100.370704278455
100.370851016161
100.370617335123
100.370416105771
100.370211850589
100.369980372167
100.36970959332
100.369441969062
100.368938150507
100.369181070382
100.36950884734
100.36976837493
100.36999756756
100.370223302483
100.370436741473
100.370658877157
100.370403801401
100.370442673502
100.370619239253
100.370816070921
100.371042052523
100.371160560449
100.371333255054
100.37102485126
100.371108422932
100.371297918215
100.371380919669
100.371218644926
100.371151915965
100.370932554144
100.370557770509
100.370016937411
100.370029782716
100.370214743458
100.370552020301
100.370818976456
100.371481563343
100.37204063081
100.372403847813
100.37276353474
100.373062244134
100.372846667913
100.372824963479
100.373024664581
100.373392826389
100.373288177654
100.373500240052
100.373627757004
100.374001857881
100.374484497234
100.374417993201
100.374560503756
100.374584923355
100.374427066861
100.374418751811
100.374315693632
100.3739973934
100.373619394309
100.373426981553
100.373046875725
100.372502976297
100.372157202534
100.371662369117
100.371535814982
100.371430038099
100.371410498873
100.371423530484
100.371589703875
100.371574768219
100.371906439667
100.37178186817
100.372040182099
100.371939824604
100.371931050173
100.371728648784
100.371864837273
100.371720386573
100.371630368295
100.371552456804
100.371453580042
100.371247053899
100.371230788587
100.371064563185
100.370879431766
100.370666447874
100.370459679455
100.37024831672
100.369992435451
100.369717047192
100.369429469674
100.36911433614
100.368739738285
100.368376026191
100.368730446493
100.369096564161
100.369272744602
100.369579902248
100.369867119518
100.370118311629
100.370333878007
100.370557505573
100.37078325705
100.371049598084
100.371234458717
100.371102757474
100.371197450611
100.371319907638
100.371396757245
100.371523583481
100.371752233001
100.371561194232
100.371566969176
100.371648456593
100.37182636787
100.371574034499
100.371554322062
100.371119134072
100.370329993874