/*--------------------------------*- C++ -*----------------------------------*\
| =========                 |                                                 |
| \\      /  F ield         | OpenFOAM: The Open Source CFD Toolbox           |
|  \\    /   O peration     | Version:  v1612+                                |
|   \\  /    A nd           | Web:      www.OpenFOAM.com                      |
|    \\/     M anipulation  |                                                 |
\*---------------------------------------------------------------------------*/
FoamFile
{
    version     2.0;
    format      ascii;
    class       volScalarField;
    location    "1.7";
    object      p;
}
// * * * * * * * * * * * * * * * * * * * * * * * * * * * * * * * * * * * * * //

dimensions      [0 2 -2 0 0 0 0];

internalField   nonuniform List<scalar> 
79506
(
100.1203789282
100.122464365493
100.118696950839
100.123240316559
100.130195678369
100.130435499846
100.128495061489
100.129102050582
100.129491479813
100.129665022291
100.130059747875
100.129681561723
100.131361714017
100.130800836497
100.132929179539
100.13295487363
100.130893215063
100.128013223897
100.124801714625
100.124420690971
100.124522344095
100.126284089305
100.123870894461
100.125066474805
100.127008291744
100.131843403132
100.12644543684
100.125433071299
100.124677560095
100.124323064394
100.12441623068
100.12448090929
100.125309325775
100.126268100164
100.131753111274
100.126767723802
100.124783807766
100.123526854397
100.125907699491
100.124114773573
100.12405165143
100.124439587394
100.12766384944
100.130585835031
100.132537537486
100.132412016265
100.125764221575
100.12457144716
100.1211836751
100.121691313113
100.1222198337
100.122060013591
100.122152394632
100.122160090122
100.119918274735
100.12314621326
100.126837648939
100.125354427627
100.12197014909
100.121027834807
100.120002964814
100.120849054445
100.120932513185
100.120269992183
100.121150479081
100.122157883242
100.125661021033
100.127134324852
100.123413106491
100.120198824897
100.122497267671
100.122519647197
100.122369170026
100.122492721647
100.121861080095
100.12135756243
100.124883861524
100.126132997217
100.123718895653
100.127036420299
100.130211867011
100.13200909185
100.130023079464
100.129462657628
100.130532407951
100.128680789445
100.126198967354
100.122008375917
100.127460185825
100.11587570934
100.10466055354
100.110840140853
100.11245504623
100.121715653551
100.11587231581
100.117018687436
100.119740471224
100.119058418788
100.118560822561
100.11858860797
100.118555891496
100.123135816736
100.123939030847
100.119406779155
100.11976871992
100.117236023222
100.116050631615
100.116945251417
100.116957441709
100.116082482417
100.117347057493
100.119981793576
100.119686908199
100.12422276535
100.12343280449
100.118841183535
100.118948227455
100.118935298439
100.119377627067
100.12003797805
100.117209807842
100.115992409444
100.122164061312
100.122641910402
100.119195882532
100.12304381534
100.129564096932
100.134780306285
100.12822650542
100.127692545596
100.132242115216
100.147706586216
100.116592791401
100.11710349837
100.102073409657
100.075421675506
100.076277309976
100.071966571184
100.072674609558
100.078868738093
100.109098380431
100.119363367855
100.116467001514
100.116227237165
100.120376716351
100.126592237011
100.109871732843
100.110430008307
100.11184897573
100.12118891438
100.116242256914
100.116266476108
100.121307722367
100.111856844395
100.110562883531
100.110063645733
100.108651319975
100.109377651681
100.112906627942
100.110716874365
100.070799958566
100.07285508667
100.07415053631
100.073900912927
100.072825589971
100.072876691135
100.074775673498
100.075202922506
100.079315544455
100.10845027822
100.1035975446
100.087281294721
100.081501755462
100.08142917424
100.078741726454
100.079532943309
100.074039347411
100.074147806844
100.076291744283
100.080024823169
100.07993457551
100.076127150771
100.073990112827
100.079345135062
100.078561456656
100.072190273032
100.072798068932
100.079318523344
100.079775370865
100.078914903356
100.07860966587
100.079482291614
100.079349777502
100.07861635798
100.079848393849
100.079928929996
100.080404024502
100.080477861299
100.079831562459
100.075045169503
100.075854564296
100.075824829633
100.075010638018
100.07400689409
100.074956622842
100.074504529987
100.078433735719
100.079712907731
100.080343209272
100.080629926367
100.079936274249
100.079882163804
100.080598147835
100.080511118804
100.078377132925
100.07817242748
100.078260322471
100.078342758012
100.078410039889
100.078274203497
100.080099862576
100.079194856705
100.079182748692
100.079773987631
100.079325657007
100.078525689025
100.079740898671
100.078058785829
100.077966393487
100.078124646612
100.078225756083
100.078038430515
100.078088544254
100.07839340653
100.075960559528
100.075974565482
100.075921343569
100.075995728458
100.075977848024
100.076023537768
100.075954530546
100.075916360338
100.07823378743
100.080069402816
100.080398717748
100.080239836254
100.078170081908
100.07579279983
100.075776580558
100.075674609408
100.075720853482
100.075763991291
100.075743454433
100.075811139773
100.073922481974
100.074042584077
100.074060642693
100.07400780252
100.074068177297
100.074051000209
100.074071358187
100.073999766818
100.073962704234
100.073961686495
100.075918224577
100.078294791339
100.078702469203
100.076098052801
100.074090348092
100.073864033974
100.073841824646
100.073778938452
100.073842706062
100.073882597357
100.073853969614
100.072147619664
100.072223364895
100.072329081769
100.072339534854
100.072285119958
100.072343876045
100.072327393713
100.072333047537
100.072261867937
100.072225400928
100.072221968094
100.072142446018
100.072124577333
100.072088450174
100.072143656659
100.072168085894
100.070419417908
100.070397318284
100.070474416345
100.070579084786
100.070568145052
100.070526097706
100.070598000323
100.070580255836
100.070582147875
100.070522636471
100.070488010414
100.070477247476
100.070405605303
100.070393141624
100.07037140124
100.07040957823
100.068633599937
100.068709272622
100.06857247999
100.068570836828
100.068761225569
100.068743336358
100.068708869706
100.068798312982
100.068785048721
100.068792266646
100.068744952698
100.068712514417
100.068692568819
100.068624966548
100.068610950456
100.068596335969
100.066782656879
100.066779513182
100.066891952927
100.066597801024
100.06649139132
100.066777766431
100.06685376561
100.066879205495
100.066990401787
100.066985386763
100.06699873249
100.066962538162
100.066930290901
100.066900719438
100.066836075791
100.066808869499
100.064987396595
100.064926592975
100.064860055648
100.064845035379
100.065058405021
100.064994169717
100.06480154214
100.06499356521
100.065076279808
100.065203119266
100.065217174914
100.065237447018
100.065207497521
100.065166314393
100.065118408027
100.065039721108
100.063223240974
100.063126591396
100.063015723561
100.062924519151
100.062719379488
100.063201494601
100.063316657323
100.062983836228
100.063223010614
100.063320519681
100.063465384402
100.06350332874
100.06353335482
100.063502810539
100.063432359893
100.063341282672
100.061556217401
100.061357792646
100.061188116147
100.060995849392
100.060918450303
100.060672083677
100.060674013765
100.060945257988
100.061227996755
100.06145695648
100.061606576544
100.061801547495
100.061875454156
100.061919993798
100.06187314353
100.061739185548
100.060088245135
100.059722038681
100.059378466435
100.059088986957
100.058763435278
100.058660513288
100.058543209907
100.058377721805
100.05868144831
100.059244237233
100.059573253021
100.059923416487
100.060229130688
100.060356024183
100.060425377891
100.060339422759
100.058902250931
100.058429776141
100.057726239091
100.057155618691
100.056634217664
100.056101982097
100.055891428246
100.055834430268
100.05568911179
100.056094989144
100.05688069302
100.057501604473
100.058231661801
100.058725927216
100.05894758212
100.059047187753
100.057674119217
100.057422317434
100.056565633868
100.05532162638
100.05437712352
100.053443793275
100.052587409542
100.052216698905
100.05212730251
100.051778071876
100.052511348812
100.054134301256
100.055097184758
100.056321773335
100.057178824771
100.057614077544
100.056042223972
100.055925710409
100.055711115941
100.054107005089
100.051775815047
100.050313872797
100.048852422081
100.047479901621
100.046527725028
100.046492019705
100.045850229734
100.047080819769
100.050081228387
100.051593760236
100.053764205937
100.05535545511
100.052040687279
100.053221916944
100.05221801158
100.052720307831
100.049864926823
100.045022864393
100.042726546149
100.040798744797
100.038551161555
100.036353008271
100.036970901144
100.036096283291
100.037805081257
100.042715403729
100.045142608181
100.049149606959
100.042422271214
100.047087414833
100.04873805566
100.045674298333
100.047867754645
100.042952483892
100.032758263539
100.030181589874
100.028118798333
100.025057706627
100.020339926654
100.022285601326
100.021343554968
100.024090839767
100.031583157737
100.034564120924
100.060746317232
100.066662661969
100.073078098771
100.083164512759
100.073716515323
100.072531264268
100.064145472064
100.05226112148
100.052474407829
100.04302327875
100.038436615494
100.038928819471
100.030130964288
100.070305743567
100.095273599163
100.099182174841
100.081773588615
100.038810511316
100.034180979238
100.137963558912
100.224146024591
100.161917754159
100.166997595394
100.165097926134
100.156690357383
100.152535489244
100.201469960354
100.242972639258
100.149683620278
100.162077523727
100.227026403055
100.18037622494
100.17646918266
100.159159934438
100.146557434076
100.145226471398
100.134932898621
100.173041970286
100.113873058777
100.10826013442
100.162207252152
100.122629837456
100.13719386333
100.151728422178
100.243314375865
100.260189705512
100.265053480221
100.256555491663
100.270445096783
100.280994398151
100.29730842634
100.335464012518
100.351608977908
100.252935118096
100.287798074561
100.381071797591
100.330734972125
100.321506640956
100.305915441737
100.324044124763
100.265641128293
100.249596979664
100.29558024417
100.264586677868
100.265838699739
100.268508212212
100.287500437365
100.281428066896
100.253852625562
100.247832581887
100.24790705557
100.330649713061
100.372702848857
100.345570414049
100.349514561162
100.383173979922
100.374002109371
100.348918913752
100.438047555802
100.46406347874
100.436064535318
100.458405687512
100.464212317289
100.424226956798
100.378935268872
100.421685684652
100.370363187875
100.457788186711
100.480377214641
100.46553356375
100.475011490405
100.494637110185
100.467502623172
100.415983798479
100.437941809969
100.469987865839
100.427844570807
100.446116578381
100.449699141811
100.410392791048
100.443291999522
100.419890088114
100.349531703366
100.337455320951
100.403257404305
100.41146668664
100.366637001879
100.396614539644
100.391638673457
100.359855852657
100.39353445448
100.365066884618
100.355615074105
100.378467058883
100.347847203858
100.346028914011
100.40422345528
100.447953481441
100.429538559468
100.443018335106
100.469212234022
100.467904171499
100.447051535799
100.419489739759
100.418338287794
100.477784478657
100.497599925123
100.492658036607
100.491139949915
100.492156081746
100.487386476236
100.474435057418
100.501991360438
100.503975972081
100.499881369093
100.501865562405
100.497554612475
100.493437155293
100.485390692243
100.486921374435
100.490689872705
100.498672022825
100.488930649983
100.501802504313
100.499126803864
100.496552636996
100.496599126934
100.497890810415
100.498664011651
100.497471889397
100.498111298136
100.495612895979
100.4877658422
100.491637006205
100.497988680639
100.483722087375
100.484128287883
100.480130764008
100.481340146605
100.463780976415
100.450303648258
100.465929291529
100.456216291085
100.447986365725
100.445076581317
100.449393426475
100.456361501401
100.428400917025
100.421346928767
100.444993036356
100.430987623242
100.447160540995
100.480422228706
100.481929080808
100.48621725444
100.494274076452
100.503955323251
100.503136870254
100.507444461824
100.505712848868
100.502243432578
100.497302237739
100.500836145487
100.507532404658
100.507781200514
100.507532574309
100.509375436131
100.511035552057
100.507928586251
100.506461297617
100.511844550806
100.512629847101
100.51257661776
100.514094957665
100.507401536967
100.510983572674
100.507366283909
100.506422783549
100.497248570505
100.499409424333
100.496801694979
100.496244203121
100.493758713355
100.500123425542
100.499663367762
100.496470583945
100.496020060293
100.496853801045
100.497340621939
100.496707706947
100.495781801358
100.496335219728
100.496389537449
100.496626038789
100.496949122752
100.497502895906
100.497481699622
100.497775534657
100.498130480855
100.49753116822
100.497726848585
100.496964628287
100.498537860091
100.497236716592
100.496336401504
100.500024332352
100.493365952481
100.492508225213
100.49361393445
100.494548653909
100.49433325101
100.484322561425
100.480610887781
100.492780016224
100.492439838355
100.479873197339
100.48800640894
100.486752788911
100.479570562759
100.488235426389
100.486037967887
100.482578001669
100.49509214238
100.492408797597
100.490523696376
100.490347592505
100.484022628291
100.49357119383
100.499819910839
100.499378490273
100.503799741655
100.508686249536
100.507511985589
100.51023128098
100.509102518457
100.508491366853
100.509624301579
100.513236931872
100.510477574352
100.50936106885
100.507745529887
100.508417103841
100.508962262781
100.508819943422
100.511810356825
100.512080573564
100.513196825963
100.51187528227
100.513189172566
100.513528805487
100.511727569839
100.509807975569
100.511335985514
100.511377093822
100.509639936714
100.508567150593
100.507140614301
100.504129389803
100.505605101513
100.504792544021
100.51004940996
100.513292667687
100.510300227638
100.507115362624
100.507256993459
100.506519114458
100.504123218587
100.501692543692
100.49925072104
100.496597030147
100.492676394913
100.493593086031
100.502000097936
100.530723003147
100.543122694909
100.491718617445
100.454397494781
100.420853616839
100.381805131162
100.359377535039
100.374693454143
100.372178520759
100.370739892795
100.371174207599
100.371945892764
100.372677336504
100.373594480488
100.374813599676
100.376220128157
100.377621672015
100.37886498186
100.379826550704
100.380410511552
100.379424080951
100.378364205006
100.377218067048
100.37596416083
100.374628333193
100.37329724565
100.372076526859
100.371005147058
100.370077534326
100.36926450573
100.368522168879
100.367828771301
100.367208461598
100.366750772686
100.366586094232
100.366804410599
100.367440681658
100.36848149744
100.369767115184
100.37102860676
100.371919977497
100.372275642617
100.372256741058
100.372316673953
100.372318135771
100.372331605898
100.372347300069
100.372368487168
100.372342052986
100.372384083451
100.372367879545
100.372461198129
100.372571406489
100.372538030617
100.372467355846
100.372333925123
100.372304573838
100.372476840806
100.372306491328
100.372324822419
100.372340671444
100.372220236699
100.372121105916
100.372254794246
100.372142930699
100.372258817588
100.372267096728
100.372303371943
100.372223599121
100.372267015853
100.37226378305
100.372253441258
100.372241333265
100.372211249242
100.372232691304
100.372173500628
100.372077487162
100.372003002899
100.371858236662
100.372024861698
100.372103448652
100.372136571382
100.372182085783
100.372166818904
100.372166200862
100.372198267393
100.3722381935
100.372255964714
100.372290708649
100.372335456266
100.372380900428
100.372419820488
100.372433734474
100.372446837296
100.372386356805
100.372607814278
100.372653600197
100.372684355511
100.37272825677
100.372712350331
100.372627902208
100.372529376558
100.372442126723
100.372112873295
100.371668733977
100.371483843369
100.371633507114
100.371821291709
100.372186971597
100.371924003077
100.371706525877
100.37152811856
100.371720597812
100.37172908647
100.372028849407
100.372107470651
100.371989880226
100.372058203501
100.372064467242
100.372180309805
100.372143685662
100.372189754596
100.372263489207
100.372208935398
100.372192777001
100.372246918852
100.372292973335
100.372389812189
100.372394954227
100.372466934086
100.372492355903
100.37249250664
100.37253290647
100.372550527729
100.372748258021
100.372812463863
100.372902517569
100.372979792378
100.372933226691
100.373073020578
100.372685937479
100.37259639998
100.372341147252
100.372375445135
100.372617919514
100.372638354444
100.372849280935
100.372982131752
100.373153327604
100.373186559314
100.373201535119
100.373048335021
100.37282759981
100.37270544411
100.37278112181
100.372847220855
100.372976906355
100.372864398753
100.372784168732
100.372571569005
100.372263184486
100.372149063623
100.372405687234
100.372410432633
100.372540046657
100.372557507285
100.372628147458
100.372693480726
100.372750368886
100.373027881721
100.373191060798
100.373341659019
100.373381401749
100.373402510711
100.373168352702
100.372923230495
100.372478747521
100.3719657175
100.371492955452
100.371698624636
100.371887333344
100.371892819259
100.371734700967
100.371021934294
100.370392920268
100.369813596597
100.37003394915
100.370361601155
100.370230861511
100.370109408247
100.370359383271
100.370669636631
100.370832045834
100.370904091278
100.370643352465
100.370927225832
100.370601197126
100.371246575129
100.372141088274
100.372448288887
100.372340737828
100.372370609229
100.372377198273
100.372426293922
100.37245796852
100.372513116821
100.372514711568
100.372572238343
100.372611248764
100.372667460608
100.372662266584
100.372760032845
100.372875027948
100.373175130279
100.373349245277
100.373484091209
100.373478281833
100.373448586909
100.373267267072
100.372995559681
100.372578702256
100.372056526752
100.371477870151
100.37070872893
100.370304322845
100.370188818705
100.370035693696
100.369943555567
100.369156491007
100.368805364286
100.368655764854
100.368507499203
100.368471368886
100.368930013294
100.369035253366
100.368556920389
100.368888154627
100.369381687283
100.369446702056
100.369555810709
100.370694369406
100.371372159282
100.372093080852
100.372495452941
100.372485381254
100.372474835096
100.372476497151
100.372519779973
100.372553836565
100.372601187201
100.37263989762
100.372694527199
100.37269693065
100.372676108199
100.372819188975
100.37300681768
100.373309635547
100.373502208815
100.373674875931
100.373621631989
100.373630181242
100.37364952803
100.373777192116
100.373617390567
100.373414728505
100.373068978871
100.372719270877
100.372811692118
100.373170666666
100.373452504088
100.373651068945
100.37384149219
100.373799088477
100.373693275366
100.373405821231
100.373104493223
100.373076704079
100.372665502005
100.372159696286
100.371573067233
100.370803929637
100.37043613704
100.370035320521
100.369791996278
100.369721175099
100.369468357246
100.369204871248
100.368939023721
100.369253583899
100.369588895318
100.369866325539
100.369627499798
100.369280327073
100.369060743971
100.368613349146
100.368607144891
100.36877430313
100.368522380141
100.367989432104
100.368243396796
100.368355433336
100.367924756144
100.367959620401
100.36744223536
100.367037385611
100.366687477852
100.366495955461
100.366969078885
100.367339379398
100.367646383797
100.367213958336
100.36736050873
100.367582198404
100.367404785633
100.368109044169
100.366624032417
100.365194567132
100.364208997382
100.364227197892
100.364752519424
100.365633375276
100.367605404231
100.365445305315
100.364594825008
100.36389198728
100.360365529768
100.357821959987
100.362203647457
100.36140738019
100.361272520806
100.358978775397
100.360364800871
100.357728347122
100.359747084926
100.361257419706
100.361510245701
100.362540675456
100.363937810347
100.36500853391
100.366154400765
100.366992795201
100.366471059256
100.36833151102
100.365720464975
100.372410207511
100.371376639958
100.370008333656
100.368361068516
100.36675267244
100.365645982887
100.36792902805
100.369234434963
100.365133273331
100.3627060687
100.36189610142
100.352073422554
100.355409873514
100.352959944281
100.356280012748
100.357964494646
100.367844176264
100.369578142708
100.37138329108
100.371641859528
100.37189716669
100.371926134639
100.371946057696
100.371959883729
100.371955385435
100.371983139076
100.372018978423
100.371973401262
100.372081626375
100.372031621285
100.371935234724
100.371845780612
100.371817665088
100.371965724889
100.371860381323
100.371995009947
100.372011104107
100.371897674627
100.371963828148
100.371967917189
100.371950632427
100.371940371812
100.371932513612
100.371896301671
100.371816929941
100.371831554912
100.371278269837
100.370387837721
100.371518526614
100.371863267145
100.371823579891
100.371884264787
100.371879982177
100.371891712864
100.371886211442
100.371899872364
100.371906271109
100.37187311462
100.371917348359
100.371814560295
100.37185073516
100.371956071962
100.371981298545
100.371937288361
100.371849149296
100.371850125737
100.371426637671
100.371269516386
100.37157127949
100.371465847115
100.371776300886
100.371640040311
100.371774901692
100.37186238741
100.37182939973
100.371867589896
100.371906754565
100.371940886002
100.371907761528
100.371851256185
100.371895192827
100.371869901738
100.371860967791
100.371799459803
100.371824187695
100.371551358727
100.370557575733
100.371747713245
100.371809293827
100.371821273658
100.371864823951
100.371867648946
100.371883416619
100.37190510191
100.371880615822
100.371871742989
100.371840066237
100.37186767334
100.371748588389
100.371552409745
100.371193298032
100.370720785454
100.371309904409
100.371215536248
100.37171465966
100.37149578331
100.371767031941
100.371860598886
100.371859979755
100.371868369704
100.371936773972
100.37188114391
100.371839839973
100.371843684476
100.371837597405
100.371820048033
100.371794879908
100.371763964187
100.371625525923
100.370357094697
100.368726662058
100.370805105915
100.371755071761
100.371768827935
100.371810055195
100.371850786248
100.371852469311
100.371844612151
100.371912118697
100.371933310167
100.371882687142
100.371849488208
100.371834815424
100.371723195218
100.371521449191
100.371837676205
100.371879474442
100.371892848499
100.371888115682
100.371839629341
100.371687804661
100.371526874562
100.370973086138
100.371713072271
100.371552081308
100.371848402102
100.371786620308
100.371900284465
100.371932419152
100.371931103666
100.371863521419
100.371952556335
100.371846634713
100.37187559353
100.371835611718
100.371829441683
100.371781732646
100.371796536061
100.370981530517
100.369201064786
100.37144116041
100.37190942705
100.371849727074
100.371860862346
100.371922820609
100.371830001489
100.371970864364
100.372003837267
100.371872768386
100.371921023101
100.371872366948
100.37187253459
100.37185826107
100.371725981773
100.371015909497
100.369387233256
100.368311654276
100.370359452644
100.37148058578
100.371846419013
100.371923178477
100.371912874895
100.371997902597
100.371878819756
100.372061740659
100.371923488067
100.372005343753
100.371973363903
100.371857833306
100.371718356941
100.37118718212
100.370653691169
100.371279367637
100.371775155549
100.371831746927
100.372062519319
100.372000714788
100.372077506541
100.372103753177
100.372066515827
100.372158527841
100.371957962556
100.372028881268
100.371942539985
100.371962702012
100.371948020708
100.371755603649
100.370768488323
100.369435716356
100.371584177986
100.372047669907
100.372055441754
100.372018188325
100.372137343076
100.371966038646
100.372224829803
100.372068178431
100.372189858772
100.372198825884
100.372114606552
100.371914434956
100.371438045205
100.371922366788
100.372010429112
100.37218874729
100.372181116944
100.372254834318
100.372255986258
100.372188145476
100.372275994289
100.372052673575
100.372123571537
100.372061083965
100.37207979401
100.372056883308
100.371983477218
100.371507654604
100.369978855309
100.369255103849
100.371335837648
100.372008247888
100.372097105682
100.372135956383
100.372139950543
100.372185942161
100.372081421819
100.372295933711
100.37214663109
100.372287170219
100.372295386847
100.372205635295
100.372041667773
100.371461978214
100.371979524836
100.37204627347
100.372218028143
100.372234559172
100.372334145386
100.372216216962
100.372321229975
100.372338213097
100.372291431638
100.372200665352
100.372168272692
100.372166400678
100.372227947871
100.372170060913
100.372181138721
100.372130393591
100.371953393231
100.37134973783
100.369864233828
100.369552815646
100.371307497024
100.372005939645
100.372175113494
100.372226635146
100.372230462357
100.372212609189
100.372246438829
100.372206956291
100.372373989792
100.372284047404
100.372353250479
100.372372547856
100.372305081865
100.372114229879
100.371633811249
100.372050437796
100.37229710841
100.372360561044
100.372345955714
100.37239870669
100.37240888532
100.372354030096
100.372214336073
100.371715024594
100.372099880156
100.372192840523
100.372290938603
100.37237780434
100.372428824856
100.372310350866
100.37238883451
100.372286206004
100.37233739079
100.372416278141
100.372230356538
100.372276172854
100.372331362319
100.372284269244
100.372297861659
100.37230695576
100.372295925337
100.371805378498
100.371260599602
100.372367053624
100.372405783585
100.372376423999
100.372356805213
100.372383537806
100.372334335325
100.372339562407
100.372397560327
100.372407120718
100.372408552161
100.372450083053
100.372417453347
100.372144680719
100.372299315978
100.37242030767
100.372392577219
100.372410251271
100.372410537272
100.372481350765
100.372366579839
100.37241013171
100.372410618096
100.372438750477
100.372468321658
100.37244839349
100.372603250943
100.371811530682
100.371868827481
100.372606648138
100.37254165641
100.372518826378
100.372510302505
100.372483914312
100.372471639651
100.372435390747
100.372511508431
100.372427692511
100.37245255766
100.372487424927
100.372401843886
100.372202686523
100.371781734198
100.372172345055
100.372367684853
100.372452122411
100.372424627902
100.372498046912
100.372507584009
100.372431370287
100.372311103986
100.371868109098
100.372231752456
100.372430336886
100.372507404634
100.372475007116
100.372481214282
100.37251295658
100.372559201371
100.372482671009
100.372506011237
100.372519556047
100.372547772134
100.372563047198
100.372609262355
100.372530182199
100.372757707343
100.372102983249
100.372643860413
100.372788412948
100.372700666254
100.372658846508
100.372641506245
100.372624869768
100.372589322992
100.37257562288
100.372637868627
100.37254919934
100.372562938794
100.372607404886
100.372544205896
100.372437519515
100.372019634086
100.372349219708
100.372520486851
100.37256172168
100.372545253035
100.372589311479
100.372592401125
100.372588012999
100.372600161611
100.372300219609
100.371900920114
100.372410008124
100.37264968409
100.372682023056
100.372702027854
100.372768989191
100.372710743947
100.372629617211
100.372643419621
100.372628051053
100.372646036047
100.372659625477
100.372600431829
100.372627129329
100.372659110369
100.37273127296
100.372697695728
100.372760186191
100.372637313761
100.372871372755
100.372339972459
100.372984160802
100.372814646837
100.372910040693
100.372841522836
100.372836316301
100.372846143288
100.372751970288
100.372723515026
100.372705485413
100.372722147566
100.372676233128
100.372746425098
100.37280417751
100.372899788743
100.37283975127
100.372786553849
100.372906009218
100.373009686096
100.372928518296
100.37299618489
100.372976088122
100.373131436311
100.373305338861
100.373294845257
100.373411146916
100.373264174928
100.372957010926
100.372920541534
100.372996708013
100.372857926407
100.372895220296
100.372792661577
100.372855895155
100.372956663798
100.372910936088
100.372985346081
100.372943257085
100.373074238807
100.372899439863
100.373184887838
100.373104063053
100.371734431104
100.372131778559
100.370645346841
100.371124798184
100.369725348453
100.370307471582
100.368931378463
100.368061658302
100.368367095558
100.367624459227
100.368157919868
100.367477835963
100.367116782871
100.367711717803
100.367390746097
100.367276208461
100.368517435462
100.368589999109
100.368770293275
100.370319684828
100.370491306931
100.371654644926
100.371933501183
100.372006302669
100.372023322964
100.372066928161
100.372057172768
100.372089774632
100.372100153243
100.372125146777
100.37207299504
100.372146242195
100.372051698739
100.372084768729
100.372142814459
100.372140286293
100.372089807954
100.372011632714
100.372115015009
100.372043641644
100.3720610306
100.371767812951
100.371646998692
100.371845821852
100.371663902095
100.371304597219
100.370925738939
100.370880678853
100.371171403318
100.37121610057
100.371715038902
100.371583064389
100.371291923866
100.370804621962
100.370181250043
100.369503558901
100.37002613105
100.370253687648
100.370158435553
100.370731798003
100.37074061067
100.370793913898
100.370550500527
100.370867409003
100.371335258056
100.371486592784
100.371776075245
100.371795808358
100.371938099243
100.371945314228
100.37188066008
100.371894878435
100.371921889345
100.371944230894
100.371972543424
100.371970474406
100.371979281336
100.372009156948
100.372001037631
100.372033866736
100.372043905624
100.372086237602
100.372137475567
100.372139877508
100.372158662683
100.372187088481
100.372169159473
100.372255821092
100.372224793144
100.372146433535
100.37223349617
100.372103594671
100.372140070654
100.372140621862
100.372154506845
100.372125697688
100.372103791314
100.372367066414
100.372366919107
100.372337333995
100.372378532317
100.372426714288
100.372480580633
100.372531348991
100.372650319162
100.372706363167
100.372752274992
100.37279795987
100.372889775642
100.372950880135
100.373115447204
100.373387517678
100.373616606921
100.373817177393
100.373983365897
100.373923679173
100.373819994005
100.373545573974
100.37316478759
100.372844287262
100.373000667896
100.372609251059
100.372201042618
100.371663882639
100.370894213252
100.37056144225
100.3701767634
100.369963116834
100.369920224607
100.369757784598
100.370077526827
100.369823168564
100.369462028156
100.369106463621
100.368947827606
100.36950327481