/*--------------------------------*- C++ -*----------------------------------*\
| =========                 |                                                 |
| \\      /  F ield         | OpenFOAM: The Open Source CFD Toolbox           |
|  \\    /   O peration     | Version:  v1612+                                |
|   \\  /    A nd           | Web:      www.OpenFOAM.com                      |
|    \\/     M anipulation  |                                                 |
\*---------------------------------------------------------------------------*/
FoamFile
{
    version     2.0;
    format      ascii;
    class       volScalarField;
    location    "0.1";
    object      p;
}
// * * * * * * * * * * * * * * * * * * * * * * * * * * * * * * * * * * * * * //

dimensions      [0 2 -2 0 0 0 0];

internalField   nonuniform List<scalar> 
74874
(
100.136291244387
100.138675444972
100.139148777935
100.137738572775
100.143253734322
100.143840335646
100.140682306039
100.142290670805
100.144807729396
100.144881386212
100.142768881601
100.14123271111
100.14451654374
100.143966412073
100.14497783695
100.145161247299
100.144542615314
100.141403885139
100.138494883293
100.137925310331
100.139399744836
100.140716922711
100.139198362183
100.138848695417
100.144290085817
100.144425978424
100.139825190568
100.140090820111
100.141253637904
100.139432274791
100.13956978747
100.141067999458
100.140072741187
100.139772563908
100.144358884562
100.143861075369
100.138758883245
100.139175075463
100.140617115575
100.139037797649
100.137606724018
100.138132162631
100.141038683141
100.144185086856
100.144632578475
100.14439045128
100.138247391916
100.137507013423
100.137112929972
100.136546837862
100.135534109846
100.135539444064
100.134824494052
100.135172156054
100.135439164099
100.135995980215
100.137196699044
100.136685189116
100.135077595266
100.134790253681
100.134523171668
100.134070093722
100.134114445905
100.134652305836
100.13481332004
100.135149020673
100.136701990702
100.137235693313
100.136111522993
100.13559462862
100.135462561221
100.135124962524
100.135786684874
100.135796629569
100.136784897796
100.137401623008
100.137878828704
100.138657228537
100.138201370901
100.139771719496
100.139380224012
100.140522797704
100.140782131369
100.140567002804
100.139999904829
100.139518684391
100.139021865
100.135865663045
100.13419064721
100.136221639963
100.135183032819
100.131490924388
100.132439952857
100.135051986985
100.134749553742
100.133006121873
100.131247753666
100.132830129047
100.134392893462
100.133743388574
100.133067341743
100.132651358444
100.130831205812
100.129766395988
100.130963132108
100.130907559927
100.129645968584
100.130784257004
100.132764164181
100.133246964682
100.133593425631
100.13460170077
100.133374603273
100.131727871402
100.133370725259
100.135009707734
100.135286521803
100.132615973843
100.131708386338
100.135592164974
100.136645961879
100.134706511299
100.13668568547
100.140247611195
100.140471140356
100.138059805688
100.137823719703
100.13140464202
100.139555199349
100.139148399692
100.133717881606
100.131243734679
100.135881649466
100.136254298348
100.130583431341
100.130817295696
100.133716704667
100.132123316008
100.130950826883
100.128955201031
100.131842052397
100.134417922185
100.130657248829
100.130100395623
100.13233933928
100.128714294114
100.126366404634
100.12855095174
100.128516116465
100.126304553408
100.128686679191
100.13245054409
100.130472715052
100.131320916588
100.135382918586
100.132825540639
100.129533477121
100.131366827455
100.132427454167
100.134002183543
100.131026973758
100.13074608882
100.13682954071
100.136352259788
100.131944439018
100.134974711512
100.141766010297
100.142644405659
100.132340070568
100.159475827734
100.15743386893
100.130014027502
100.129877168059
100.135204680109
100.124746153413
100.126279783741
100.137331827151
100.133705136557
100.130852729305
100.130782911864
100.135689020575
100.125263063699
100.126408128559
100.126666134235
100.126418450817
100.13324162478
100.12950576737
100.129470077383
100.133104054114
100.126547015565
100.126815246849
100.126583904902
100.125175788164
100.123626348643
100.126567662991
100.124324384843
100.115685157576
100.118288359174
100.090061797175
100.08617323705
100.086536836312
100.092306938672
100.123534061512
100.117851393248
100.100807646251
100.093817696531
100.08749686026
100.088251324836
100.0932275018
100.090209836726
100.091175698028
100.094472894986
100.094460231474
100.091127111886
100.090193227207
100.092863332429
100.092043813433
100.085838632245
100.084567948458
100.08909721151
100.087139928697
100.086970917895
100.085971075578
100.085996497003
100.092221807435
100.091427099052
100.091742848447
100.092128709469
100.087394111599
100.087967179398
100.089314964134
100.089290438123
100.087948872205
100.087183834658
100.088174700599
100.087400153023
100.085919067328
100.085951864853
100.092747438891
100.091809632651
100.091471704056
100.092239791014
100.093517869832
100.093461548958
100.092842867156
100.093022066389
100.093276120788
100.093309066084
100.092401790896
100.092119490437
100.092110567957
100.09229230343
100.091932591043
100.091702640909
100.091360096727
100.092284182093
100.093394148442
100.09370382237
100.092959443096
100.092854636206
100.091128630094
100.091417186416
100.09139846895
100.091193362359
100.091347896035
100.091347619457
100.091377122048
100.091240746081
100.092957757444
100.092931223448
100.093174192599
100.093095558706
100.092930128099
100.092769021492
100.091063966507
100.091249083299
100.091389675568
100.091104802152
100.088781810522
100.088833648633
100.088946816749
100.088975600474
100.088891257999
100.089009511071
100.088960528688
100.089010677073
100.088962421231
100.088947824473
100.091220466913
100.091293058328
100.091222506974
100.091225712276
100.088900910781
100.088749081324
100.088829461231
100.088843906605
100.086842496895
100.086830737823
100.086883074784
100.086942824561
100.087003156793
100.086929774822
100.087018651938
100.086988456727
100.087037962191
100.087003118209
100.086990821903
100.087010984028
100.088971544731
100.088875478662
100.086920941902
100.086936972096
100.086823898686
100.086894367818
100.085156951635
100.085115130896
100.085063186764
100.085095134135
100.085139180281
100.085219200682
100.085165584669
100.085249796375
100.085230786788
100.085280714245
100.085262184747
100.085256820755
100.085264944419
100.085177203487
100.085189568686
100.085107833043
100.083302531369
100.083302083162
100.083258996833
100.083157907768
100.083175696866
100.08322243355
100.083328418438
100.083304303572
100.083401713183
100.083386567936
100.083459102716
100.083472565571
100.083476707346
100.08347057674
100.083366803067
100.083373714343
100.08129132204
100.081208165547
100.081173628426
100.081120849325
100.080874271318
100.080885179829
100.081034565093
100.081148900877
100.081136558528
100.0812647587
100.081278101588
100.081386454109
100.0814408125
100.081492325787
100.081472294004
100.081348127574
100.078781974289
100.078683932344
100.078558135272
100.07852845581
100.078467717051
100.077873171904
100.077834612013
100.078262747389
100.078373019025
100.078397484851
100.078568829859
100.078658064649
100.078856932416
100.078922296247
100.078995893765
100.078927242181
100.075120430413
100.074878249478
100.07487194038
100.074647952384
100.074447084805
100.074651476767
100.073419443671
100.073267737779
100.074190202445
100.074083637165
100.074266236314
100.074566832178
100.074643859517
100.075020320256
100.075202920277
100.075248001407
100.06923137024
100.069054485143
100.068498661275
100.068717037522
100.068557264699
100.067668107567
100.068566735242
100.066053536401
100.065910105729
100.067840441943
100.066970523651
100.06772448376
100.068057900173
100.068112861763
100.068682862299
100.06907161052
100.046848857497
100.047016809506
100.043726930837
100.043304608394
100.046860687681
100.047402918641
100.042632388783
100.043146588752
100.043096284752
100.042948112663
100.042421095873
100.041356811994
100.046290076445
100.046054372797
100.042898341103
100.043395286544
100.049435442912
100.052204327914
100.052208433122
100.050001883724
100.049614687093
100.051023114488
100.053181078454
100.046968855645
100.033931317942
100.076391639825
100.112275832514
100.111800270122
100.075011642497
100.042347392433
100.042704205554
100.181351256699
100.305912601365
100.231720891043
100.229516015555
100.182139503522
100.166643951297
100.152000566098
100.045838330272
100.052608400314
100.051025858698
100.04927688651
100.158806209874
100.15946921623
100.198305934921
100.137196618207
100.137692229281
100.199409323924
100.160552627072
100.159198281208
100.195287525959
100.1320667673
100.129801044426
100.185882640545
100.152553494871
100.169987833728
100.185133248888
100.305086061618
100.375389989553
100.354372436782
100.350576025656
100.367845028031
100.346502369027
100.300056256707
100.465675005302
100.492040426671
100.499146486272
100.533304057116
100.603642585324
100.607761353511
100.528331700967
100.461204495616
100.394618143926
100.356631257251
100.380609584932
100.379045647901
100.375759280806
100.375798414674
100.376845955572
100.377982155477
100.379290416196
100.380937081031
100.382867390771
100.3847728028
100.386127339579
100.386777169242
100.386980034522
100.386118217709
100.384983630323
100.383679386602
100.382335223978
100.381094122262
100.380010856658
100.379095938665
100.378352532657
100.377774038169
100.377338738448
100.377014181997
100.376768651238
100.376577077742
100.376419974516
100.376281480974
100.376147593238
100.376005265765
100.375844639754
100.375657729636
100.375441190326
100.375187896413
100.374938559267
100.374803393826
100.374868825506
100.375353781789
100.375313605089
100.375277917339
100.375050804082
100.374822914076
100.374607960994
100.374723715956
100.37498351733
100.375263056745
100.375505432354
100.375715308903
100.375894081715
100.376050107021
100.376193067722
100.376335303056
100.376492664846
100.376679212917
100.376913451957
100.377217830648
100.377620640074
100.378151083285
100.378828467459
100.379657791134
100.380632538911
100.38173564454
100.382917006876
100.384056472905
100.385046257839
100.385798446746
100.386206761774
100.387447215772
100.388347902742
100.387839055833
100.386899068724
100.385659982937
100.384236747582
100.382775268099
100.381433824682
100.380271611513
100.37929584228
100.378507049938
100.377895671883
100.377438312965
100.377099629012
100.376846092391
100.376650717
100.37649419849
100.376360114088
100.376234409384
100.37610365751
100.375958257423
100.375790444412
100.375596366354
100.375367208351
100.375134439295
100.374985369503
100.374994228176
100.375438341776
100.375390721597
100.375468738879
100.375528649496
100.375565819722
100.375663363062
100.375631397305
100.375756341822
100.375727865649
100.375826458929
100.375812814479
100.375901394843
100.375782334394
100.375692688893
100.375709525419
100.375659296252
100.375758042947
100.375620410388
100.375763817944
100.375887260555
100.375785830343
100.375790731822
100.375698692952
100.375727564689
100.375599402755
100.375634322216
100.375536607046
100.375495070904
100.375433145927
100.375382029382
100.375453070305
100.375497844347
100.375591349753
100.375565590854
100.375691780345
100.375671627488
100.375753783458
100.375737633113
100.375806203776
100.375712467785
100.375695573313
100.375677199464
100.375736580046
100.375624204549
100.375651787643
100.375703939673
100.375689048252
100.375613804004
100.375661422873
100.375538754163
100.375557628589
100.375461536871
100.375417639576
100.37534177691
100.375232802334
100.375367414943
100.375415216116
100.375507059741
100.375516186845
100.375604350734
100.375638770446
100.375631482872
100.37568601298
100.375713647455
100.375711441545
100.375742191592
100.375770602126
100.375813342841
100.375770063734
100.37587265995
100.37586205262
100.375957824214
100.37584391808
100.375747246785
100.375527863505
100.375122886685
100.374706318871
100.374643100614
100.374637416514
100.37460958798
100.374630958059
100.374824510531
100.374945405665
100.375020438605
100.375031695226
100.37503768951
100.375494501079
100.375489989845
100.375475138562
100.375508035238
100.375612817059
100.375602617525
100.37530901053
100.374961442146
100.374995778977
100.374953982296
100.375212522869
100.375173386729
100.375321500302
100.375599185778
100.375640459754
100.375606653908
100.375652507469
100.375685266056
100.375711511666
100.375734047236
100.375768637206
100.375784141745
100.37582197004
100.375851867858
100.375881378759
100.375960518717
100.375820454179
100.375729809888
100.375450595866
100.37515738996
100.37479873696
100.374229738652
100.373800316454
100.373475655519
100.373348661757
100.373182210953
100.373205921348
100.373473653516
100.373712270032
100.37415640661
100.37403389945
100.373853421572
100.373468067299
100.373376829363
100.373335721381
100.37325439015
100.373233795777
100.373558938677
100.373805878913
100.373944275683
100.373942848258
100.373814569521
100.373419012962
100.373758524782
100.374371969443
100.374403558814
100.375086097962
100.37536138073
100.375443861531
100.375533249949
100.375523586307
100.375561658584
100.375588218967
100.375629474124
100.375604432662
100.375704265936
100.375670721765
100.375799114329
100.37583518458
100.375807466672
100.375900037397
100.375942076239
100.375937311848
100.376017833554
100.375938935573
100.375692884437
100.375608142825
100.375714708879
100.375772049131
100.375849371163
100.375967172222
100.37589101623
100.375887249803
100.375843435924
100.375878155398
100.375969699173
100.375959253923
100.376026795788
100.375980339866
100.375779429749
100.375643904801
100.375162654226
100.374941046611
100.374890036759
100.374391962724
100.373959042938
100.373649787238
100.373165626408
100.373069597489
100.372818233888
100.372588609387
100.372379061156
100.372173145763
100.371892582746
100.371669308023
100.371542351188
100.371848477252
100.372176709264
100.37241249694
100.372550364161
100.372751460824
100.372941863278
100.37276292119
100.372905254726
100.372081198695
100.372733417681
100.374541765153
100.375390347615
100.375426433177
100.375556407514
100.375606568485
100.375641805078
100.375738875202
100.37570619113
100.375749006511
100.375872666012
100.375910254637
100.375954912699
100.375921890592
100.37601158795
100.37600109158
100.376059320478
100.37600515167
100.375809518576
100.375676949737
100.375255556478
100.375021887961
100.374605927933
100.374246609626
100.373994897901
100.373816491558
100.37336707262
100.373293919195
100.373155377306
100.373025897476
100.372995267824
100.372747081882
100.372504696749
100.372314859661
100.372003804409
100.372212099156
100.372518008557
100.372775727484
100.372916612767
100.372652627986
100.372362734629
100.371968424839
100.372113270758
100.371660358937
100.371286507661
100.370983884959
100.370738950879
100.370442998017
100.370743507037
100.371031659733
100.371337219867
100.371673468014
100.37151463467
100.371560673303
100.371455822816
100.371288322139
100.370951326722
100.372252729719
100.374431035755
100.375300219019
100.375343444153
100.375394988304
100.375520829238
100.375570336687
100.37555880636
100.37558603357
100.375638698902
100.37565163281
100.375684117261
100.375783763795
100.37582189116
100.375788947305
100.37582989751
100.375869588905
100.375991987553
100.375958346948
100.376044470016
100.376024901171
100.376077964916
100.376008720755
100.375860135443
100.375690458663
100.375345556819
100.375096758916
100.374686437789
100.374331022523
100.374119143408
100.373713770724
100.373668599668
100.373512990071
100.373378574666
100.373262241432
100.373232211498
100.373098252915
100.373148311335
100.372913695606
100.372666965154
100.372413589671
100.37213069435
100.371825607507
100.371489291862
100.371143009356
100.370758742835
100.371022420345
100.371481857365
100.371899413559
100.372089294723
100.372337275583
100.372598960552
100.372855630508
100.372833312817
100.372875418826
100.372597209095
100.37169338466
100.370538961008
100.370790315738
100.369914563278
100.369235521411
100.367973462205
100.368738122242
100.369859518089
100.370790443981
100.37161314371
100.371579896545
100.370439136036
100.36964461343
100.368607293129
100.367525255068
100.366034467677
100.364701669144
100.363703706845
100.358722396619
100.357075600833
100.361451243567
100.363261866336
100.364821159893
100.366509731514
100.367493663545
100.365421926179
100.363431251892
100.360315413752
100.358698024271
100.356560903186
100.357266048607
100.360274225463
100.363556124307
100.365433037661
100.367517121711
100.368754379664
100.369115774665
100.370088191285
100.37124331872
100.371993249863
100.372674571749
100.373240851638
100.372214169391
100.372220640247
100.371211830584
100.373684908226
100.373365260272
100.372969209764
100.372492475286
100.372126763856
100.371555296215
100.370558645341
100.368564516267
100.367081900582
100.366880980402
100.368834256044
100.368447868139
100.364785716804
100.361989243306
100.363376485853
100.350776909577
100.352656935286
100.347260430043
100.352843156995
100.353993588923
100.363434950016
100.370116210173
100.373590641353
100.374154415497
100.374804963424
100.374617633527
100.374259141051
100.374306484383
100.374382773526
100.374416695633
100.374520023106
100.374346496783
100.373864419775
100.373734118193
100.373789633504
100.373976328718
100.374144329966
100.374741222633
100.374743513862
100.37493826579
100.375068253792
100.37511976643
100.37527064011
100.375203941422
100.375290664534
100.375342668296
100.375427144255
100.375404949744
100.375432435945
100.375346750612
100.374890627839
100.374573934897
100.374976872937
100.375033764124
100.375134748751
100.375358437226
100.375249076087
100.375267161025
100.375480052546
100.375404155886
100.375442201178
100.37530631518
100.375366943924
100.375364855901
100.37520546094
100.375250094085
100.375128801328
100.375083764845
100.374970206097
100.374953234268
100.375095703776
100.375131303151
100.375240904221
100.375222301586
100.375357890095
100.375310696417
100.375398965518
100.375349052618
100.375425441464
100.375454751759
100.375390951744
100.375411812622
100.375349937161
100.37535426841
100.375421412058
100.375240464917
100.37487336563
100.374360044893
100.374970796456
100.374922616862
100.375359156906
100.375173551055
100.375401267247
100.375344387714
100.375370843868
100.375241224559
100.37529441976
100.375301939638
100.375204839744
100.375218951826
100.375080256259
100.375091289888
100.375006140863
100.374850559551
100.37480230518
100.374600513461
100.37465628524
100.374698361668
100.374895066754
100.375021507889
100.375060268215
100.375185762736
100.375127817355
100.375284543679
100.375288274606
100.375248466584
100.375339674349
100.375300833771
100.375290502298
100.375220468642
100.375421188711
100.375319717741
100.375350077936
100.375295814072
100.37528851708
100.375313200442
100.375203506068
100.37474214472
100.37398650385
100.374781206369
100.374737501534
100.375230899606
100.375080633904
100.375290298876
100.375286619254
100.375295158741
100.375160541021
100.375261833368
100.375232004281
100.375163167068
100.375169138557
100.375168962216
100.375043572911
100.375036108913
100.374932164772
100.374782107255
100.374790006242
100.374963227562
100.374993419116
100.375156758965
100.375089675498
100.375124600427
100.375121517287
100.375098352476
100.375092193303
100.375080520998
100.375072179736
100.374363664456
100.374766548001
100.374770517878
100.374947811057
100.375067075973
100.375161489839
100.375163140832
100.375289426341
100.375312626914
100.375382381842
100.375460712976
100.375425399653
100.375433007787
100.375395295208
100.375368605978
100.375540870792
100.375465427452
100.37548397819
100.37548572717
100.375488382588
100.37554518517
100.375345822075
100.375246266641
100.375465209476
100.375349237851
100.375004820558
100.374565815966
100.373828586013
100.372999735893
100.372136154202
100.372707873778
100.373095323636
100.373269240427
100.37349345986
100.374184462626
100.374178517735
100.374104548708
100.373822818959
100.373438215183
100.373981240856
100.37436136538
100.375210466226
100.375113265244
100.3751666243
100.375163732639
100.375166647028
100.375164206052
100.375175862714
100.37522596506
100.375316928026
100.375327848378
100.375437956911
100.375406878367
100.375502966854
100.375573967177
100.375536021302
100.375596154942
100.375396253793
100.375244395242
100.375061121788
100.374522972438
100.373867138091
100.373896067155
100.374331598889
100.374394595152
100.375058708091
100.374720824139
100.374963199684
100.375267596837
100.375283945499
100.375381082564
100.375353875124
100.375375468601
100.375343268333
100.375474356659
100.375461499373
100.375449793025
100.375584878806
100.375564263275
100.375614799905
100.375507280291
100.375383290619
100.375579421683
100.375519162778
100.375560937837
100.375588089427
100.375607423039
100.375547259331
100.375457515375
100.375454951402
100.375329875965
100.37533278157
100.37523297309
100.375114096356
100.375134961746
100.375032527766
100.374796936758
100.37486165293
100.374796233874
100.374756795354
100.374746498537
100.374718082758
100.37495174127
100.3750771705
100.375091229273
100.375200893194
100.375243761464
100.375349084731
100.375390034726
100.375331067884
100.375506689936
100.375522899373
100.375555304358
100.3755675253
100.375595968234
100.375615652318
100.37565357075
100.375683109085
100.375723519141
100.375760426337
100.375801362472
100.375841783552
100.375884285382
100.375925470824
100.375968928382
100.375913192766
100.376029592574
100.375991698237
100.376076556724
100.376060852312
100.37611261313
100.376021061602
100.375923252187
100.375855594985
100.375755252392
100.375510276945
100.375220363155
100.374823346012
100.374477258661
100.374282858658
100.373891959077
100.373854963296
100.373707886603
100.373662442739
100.373593153094
100.373394462239
100.373279579598
100.373336185845
100.373273508517
100.373265758836
100.373262573513
100.373029119183
100.372798757071
100.372568029251
100.372306980392
100.372005612448
100.37172338986
100.371929425847
100.372313898847
100.372568519644
100.372804761244
100.37303864879
100.373070556837
100.372833004631
100.372591203417
100.372331469505
100.372002203827
100.371615929996
100.371707961248
100.371331443734
100.370892329814
100.370490841917
100.370128688115
100.369662242626
100.370018649877
100.370573891487
100.370863437916
100.371265731772
100.371200980231
100.371284713936
100.37116001978
100.370984795734
100.370116050947
100.368843132694
100.368720673189
100.372595712412
100.374575846676
100.374725966806
100.374898660568
100.375140649269
100.375530845348
100.375480358621
100.375611352827
100.375651435495
100.375692525669
100.375725490002
100.375768684366
100.375863358929
100.37590415814
100.37594944649
100.375989185063
100.375953415587
100.376067803386
100.376030489101
100.376107709878
100.376089420374
100.376120399944
100.376020438381
100.375935910527
100.375792877009
100.375522313973
100.375318611434
100.374947755845
100.374650230197
100.374440627605
100.374086311503
100.374023186703
100.37377034757
100.373856182826
100.373651669186
100.373760788702
100.373714597141
100.373702890686
100.373517723931
100.373469665339
100.373492011369
100.373484601204
100.373435396714
100.373451366873
100.373209072089
100.372994442582
100.372758506645
100.372488187197
100.372200651217
100.371877294323
100.371485718315
100.371067729993
100.370797034932
100.371111172312
100.371544378583
100.371841234516
100.372187653729
100.37247459394
100.37273074325
100.372970553813
100.373201503608
100.373186394896
100.373183319611
100.372988661456
100.373378681293
100.373313491368
100.372808121177
100.373180051792
100.372497457192
100.372415150687
100.37138634575
100.373985700158
100.37526093112
100.375164922558
100.374984650359
100.374774802563
100.374508222168
100.374119843543
100.373609303871
100.372856803266
100.37145015175
100.373261623853
100.372934681037
100.372011799722
100.369804218627
100.367043232574
100.365686270552
100.363308676369
100.364414910028
100.353925804216
100.353187099286
100.346562053401
100.350643273001
100.351080554867
100.353138990745
100.3545688824
100.353763086304
100.351897075179
100.35316683191
100.352901989936
100.353412975749
100.354325489828
100.354373010878
100.353133237329
100.35334064368
100.358601949166
100.352502088756
100.352472605306
100.354105157407
100.353284624058
100.352096083521
100.353555093119
100.353393649912
100.353604185209
100.352664290413
100.354220496235
100.354816791417
100.357989893604
100.359107422946
100.357227597385
100.358184376322
100.361158548788
100.361976092961
100.364764252925
100.366721515141
100.367392410573
100.366044698208
100.367214935073
100.368504727736
100.368971631504
100.370280821769
100.369714110623
100.370793622181
100.371627361347
100.372357632822
100.372893187796
100.373368669598
100.373673909879
100.373728285263
100.373448238861
100.372775349088
100.372780098573
100.372342095373
100.374287632902
100.375306278502
100.375633522023
100.375562757751
100.37546706444
100.375332538148
100.375166155585
100.374965635668
100.3747084619
100.374374295408
100.373932656985
100.374536387036
100.375124504154
100.374807991982
100.374416490423
100.374121208862
100.374816287209
100.374394303865
100.374753386116
100.374829391122
100.374495344243
100.374244290821
100.374250492434
100.374425628254
100.374500506294
100.374752808333
100.375059088921
100.375332443734
100.375570263246
100.375770376236
100.37594271078
100.376096476679
100.376243798517
100.376400288675
100.376579821807
100.376799316928
100.377078706353
100.377441866865
100.377913729124
100.378511262836
100.379238067217
100.380084592158
100.3810284315
100.382022099926
100.38297106904
100.383792120606
100.384416367321
100.384755718616
100.384753801373
100.386205101444
100.387445947444
100.3883471404
100.388773612411
100.388773947599
100.388245888607
100.38726970753
100.385982146031
100.384503944483
100.38298848902
100.381602405636
100.380405752554
100.379405187422
100.378598681834
100.377974938181
100.377509038761
100.377165577411
100.376909040781
100.37671324244
100.376558118276
100.376427829223
100.376308689258
100.376188222115
100.376056155361
100.375904647091
100.375729603875
100.375521632387
100.375306899107
100.375158002886
100.375315381576
100.375291996308
100.375634437919
100.375583349465
100.375523281251
100.375499470106
100.375673374068
100.3757265831
100.375738675889
100.375782981812
100.375812732325
100.375857716683
100.375902542654
100.375943737125
100.376027032134
100.375992604367
100.376102114092
100.376064388781
100.376135519766
100.376112621903
100.376138032103
100.376046622946
100.375968781818
100.375835287124
100.375578493131
100.375401854656
100.374972292771
100.374828548721
100.374606910295
100.37454711923
100.374318717709
100.374206214078
100.37397846132
100.374024629876
100.373911739402
100.373886098868
100.373865619242
100.373804696948
100.373875958821
100.373720032582
100.373537174196
100.373683588955
100.373654037587
100.37365446267
100.373682272669
100.37349620629
100.373437243656
100.37312245613
100.372872204242
100.372624952778
100.372332289665
100.372022326588
100.371633373336
100.371424610077
100.371688247815
100.372062769079
100.372368601047
100.372658510087
100.372896409843
100.373135169333
100.3733973383
100.373319386636
100.373407642244
100.373388053677
100.373387511553
100.373551253369
100.37355775109
100.37376123427
100.37366583755
100.37398356739
100.373735646864
100.373042913744
100.373214900224
100.37310536778
100.372563322519
100.374401430805
100.375270745129
100.375673048291
100.375900505094
100.376130487247
100.376046071028
100.375983249865
100.375908802975
100.375822754293
100.375710380005
100.37558567599
100.37543377107
100.375256509591
100.375556229756
100.375715859197
100.37557014404
100.375297096768
100.375123831525
100.37488176765
100.374762096212
100.374434055261
100.373929504077
100.373509112561
100.374017392672
100.374398363844
100.373617094372
100.373263801676
100.372330816383
100.371809647734
100.37016347403
100.367138065653
100.36593552148
100.364743197507
100.363494279347
100.349191231868
100.355208949791
100.3547503828
100.35322125648
100.354793704422
100.357585274778
100.358862322956
100.357976483452
100.356680188427
100.357492468809
100.358160566477
100.358334414475
100.358654401966
100.35936417025
100.358213190974
100.3608226964
100.361962906828
100.358363362209
100.360317302428
100.3609056108
100.356560892635
100.354613365467
100.350542205753
100.357698310153
100.363994452909
100.370338763938
100.373513011114
100.374243985595
100.37454797808
100.37479536068
100.374941933377
100.375008912438
100.37501458666
100.375142381985
100.375123453319
100.37521811956
100.375275445341
100.375227556617
100.375280574392
100.375242290219
100.375113510548
100.375320593469
100.375291509795
100.375264734547
100.375247028369
100.375094406238
100.374669635141
100.375185906233
100.375105559817
100.375325559041
100.375243441756
100.375264095272
100.375300171547
100.375300399304
100.375160587045
100.375214527781
100.375227838919
100.375071603216
100.37511703991
100.375150215953
100.375015978765
100.37499371803
100.374878271814
100.374703434566
100.374415372364
100.374305514435
100.373751001329
100.374240569461
100.374203643325
100.37448716327
100.374704295501
100.374902452225
100.3749748232
100.3750241559
100.375132703443
100.375106259385
100.37525520867
100.375146432085
100.375132092282
100.375134815476
100.375101674603
100.375086947209
100.375075614968
100.374694044142
100.374878735195
100.374861131981
100.374668908033
100.373659151441
100.374148593292
100.374341447892
100.374806993453
100.374967622678
100.375000173654
100.374837961065
100.373828869262
100.374451652999
100.374612674216
100.374911612151
100.375038605904
100.375045133453
100.37493812287
100.37489097934
100.374707635783
100.374023145187
100.37440792879
100.374995154915
100.375076695788
100.375039953653
100.37462142688
100.374798240824
100.374917722484
100.375093130993
100.375247799305
100.375211189009
100.375197898226
100.375193787659