/*--------------------------------*- C++ -*----------------------------------*\
| =========                 |                                                 |
| \\      /  F ield         | OpenFOAM: The Open Source CFD Toolbox           |
|  \\    /   O peration     | Version:  v1612+                                |
|   \\  /    A nd           | Web:      www.OpenFOAM.com                      |
|    \\/     M anipulation  |                                                 |
\*---------------------------------------------------------------------------*/
FoamFile
{
    version     2.0;
    format      ascii;
    class       volScalarField;
    location    "1.8";
    object      p;
}
// * * * * * * * * * * * * * * * * * * * * * * * * * * * * * * * * * * * * * //

dimensions      [0 2 -2 0 0 0 0];

internalField   nonuniform List<scalar> 
80212
(
100.338265871875
100.337652889144
100.337602259762
100.340359829724
100.343911139804
100.343886989678
100.344203842856
100.344124701547
100.34464523009
100.346156627227
100.345482975052
100.344519930148
100.344833719076
100.345952339179
100.34657386103
100.344795368515
100.344224277302
100.344209791341
100.343890891229
100.343905600458
100.344474207017
100.3447020781
100.345580605811
100.347335824104
100.345741743122
100.343673940875
100.342724410721
100.342545267318
100.342977684965
100.343345223649
100.345953402622
100.345741022524
100.344995324964
100.344611508419
100.343178670968
100.343475412875
100.344202163495
100.343419150987
100.344869969814
100.34683978676
100.34676088086
100.344785330011
100.34337026854
100.344185574744
100.343464795373
100.343163066903
100.344589723854
100.344975780161
100.34571217574
100.345947878721
100.343343252781
100.342979506056
100.342554732419
100.342735081217
100.343684663931
100.34575204242
100.347344574876
100.345588447179
100.344714465429
100.344486912849
100.341395176129
100.34171096155
100.341164443351
100.341405607833
100.341145618887
100.341049755286
100.340613287817
100.340348586064
100.340842350579
100.340790414506
100.341142115516
100.341056858135
100.340844547599
100.34136949256
100.340677388366
100.340226204328
100.340471898871
100.340457878301
100.340530712185
100.340259764559
100.340253250266
100.340523407548
100.340448646341
100.340467679093
100.340240430666
100.340713667645
100.34140602754
100.340876062892
100.341073793583
100.341146526462
100.340785975839
100.340835161035
100.340337785826
100.340605389967
100.341039335957
100.341131541704
100.341393672322
100.341152670881
100.341695809141
100.341380961068
100.340357598018
100.340449097701
100.341633107344
100.342053582626
100.341496460362
100.342133762095
100.341623584671
100.341382852341
100.341545515745
100.341928688101
100.342315519213
100.34155610107
100.342093180948
100.341661661722
100.340463618211
100.33769427493
100.33928676491
100.336846271725
100.336927262243
100.33706714565
100.339781073344
100.338102165333
100.336127812675
100.337190522202
100.338139932019
100.338257653432
100.337962551888
100.338895066037
100.339085303714
100.337973332653
100.338304818914
100.338195233144
100.33815139518
100.337861384626
100.336724753169
100.336104853167
100.337951188088
100.337294426843
100.336334268402
100.336324264954
100.337297002622
100.337925604373
100.336079352794
100.33672586326
100.337913814376
100.338207361689
100.338247566873
100.33833318763
100.337978356111
100.339077396667
100.338886209283
100.337952951665
100.338248128248
100.338128388233
100.337177961033
100.336112838626
100.338089245377
100.339762221308
100.338936116453
100.337594337666
100.337661530923
100.339230199273
100.340375696116
100.338533691252
100.336627560156
100.337385886483
100.338196100621
100.338290060352
100.337580825268
100.33681534951
100.338689024755
100.340471517267
100.336857287259
100.327682602874
100.328242904004
100.328387246283
100.327942386932
100.328783455335
100.337137250978
100.337518118558
100.337548700892
100.338390694785
100.340095368216
100.337502051549
100.33670502069
100.335514291414
100.338730522107
100.33645980836
100.33590002777
100.334568179587
100.335718485451
100.33520008842
100.339125750539
100.339170267522
100.335228008054
100.335803035273
100.334926533491
100.336043038282
100.334521477364
100.337122415355
100.33763510103
100.33815579929
100.33659661762
100.338849629741
100.335541691745
100.336694098218
100.337490852994
100.337116186611
100.337041745747
100.33690497618
100.33684133542
100.336861647758
100.336660837346
100.336635108147
100.328586342486
100.327068699395
100.326781464942
100.327054936022
100.327089142199
100.326859039859
100.327217036134
100.327310139791
100.328667124217
100.32854811738
100.328735969488
100.329768895008
100.334921417396
100.334319742768
100.330955437539
100.329276695936
100.328186069447
100.328275794293
100.330126801184
100.329668971213
100.329633608152
100.330047455519
100.329665435722
100.328648802254
100.328498740813
100.328632418993
100.328760022525
100.327923825477
100.328376117138
100.328244945662
100.32770553526
100.328617101169
100.327071470738
100.327640720437
100.327646281479
100.327626402334
100.327754391697
100.327769611662
100.327701326334
100.327813347957
100.327917932774
100.328091437037
100.327482750391
100.327795011047
100.32804892988
100.328089066347
100.328068334117
100.328357605184
100.328629785684
100.328577687433
100.328147497928
100.328054408112
100.327699269558
100.327423525683
100.327267193298
100.327182239327
100.326829563612
100.327075154413
100.327041609703
100.326768809533
100.327598772882
100.327451990139
100.32746736096
100.327477318933
100.327477424374
100.327587574285
100.327608687331
100.327594521898
100.327666059176
100.327662821375
100.327780894923
100.327656942368
100.327622081149
100.327567537513
100.327671573016
100.327670343558
100.32834034043
100.327978986715
100.327988411672
100.327982128667
100.328047587211
100.32787477851
100.327769712508
100.327665832423
100.327735176468
100.327724375607
100.327548280505
100.326519067886
100.326448189132
100.326488817332
100.326501903008
100.326487688017
100.326576543328
100.326605564611
100.326606230078
100.326702796682
100.326671230695
100.326737905331
100.326660749875
100.32666905077
100.326632550945
100.326675537365
100.326675499944
100.326634480004
100.326666455297
100.327608383781
100.327613339745
100.327730777693
100.327609953308
100.327605525028
100.327540363603
100.327556424822
100.326529245957
100.325337318489
100.325319384252
100.32527922704
100.325328718517
100.325350874616
100.325343099475
100.32541539081
100.325456848397
100.325470601445
100.325585980535
100.325585307181
100.325647683787
100.325617649536
100.32566674485
100.325655950465
100.325686630358
100.32566310538
100.325602613448
100.325590470197
100.325512342017
100.326614042558
100.326676263773
100.326585654814
100.326613747335
100.326523312836
100.325334378013
100.324193167006
100.324181718114
100.324160133946
100.324129755174
100.324191672834
100.324230691229
100.324238273923
100.324320317154
100.324380220316
100.324410964386
100.324556345774
100.324588103363
100.324663727827
100.324665567318
100.324741379458
100.324745079328
100.324782497752
100.324759212674
100.324676283365
100.324627260982
100.324511842882
100.324491327354
100.324386242926
100.3243405097
100.323176518052
100.322970822481
100.322953799881
100.322926328337
100.322885231252
100.322981277833
100.323047275497
100.323073798993
100.323189724008
100.323276021511
100.323320889543
100.323517516536
100.323585304851
100.323683498338
100.323713359337
100.323833208935
100.32384685901
100.32392079831
100.323918429159
100.323840499148
100.32375079289
100.323521303181
100.323418231312
100.323271232565
100.321923809088
100.321744870233
100.321463170807
100.321460101235
100.321428992487
100.321343740734
100.321522058056
100.321631510812
100.321671240803
100.321855410985
100.321981819259
100.322013174844
100.322286362393
100.322413693196
100.32255500031
100.322643658841
100.322849103751
100.322855867484
100.323042868738
100.323034148701
100.322842724567
100.322718445091
100.322355887242
100.322145872969
100.320439322993
100.320127240371
100.319802742979
100.319331341113
100.319426350643
100.319423259348
100.319225719932
100.319599110522
100.319774618633
100.319797462174
100.320100497239
100.320263701851
100.320189650868
100.320631809158
100.320856232316
100.32106067616
100.321290509704
100.321727142704
100.321626128547
100.321997836159
100.321945404652
100.321491826142
100.321432694103
100.320820552045
100.318639437579
100.317706648923
100.317257642699
100.31680263026
100.316000748027
100.316283752347
100.316371665489
100.315983515951
100.316822942825
100.317106717585
100.316948139436
100.317536442709
100.317692164228
100.317416921021
100.318152223134
100.31838631797
100.318641662064
100.319349350139
100.32024188651
100.31980396481
100.320659792296
100.320559124438
100.31949638328
100.319768163392
100.318175418965
100.315464001901
100.311777812167
100.311970349004
100.311324702604
100.30963669514
100.310672542479
100.310820998292
100.310111089951
100.311967543005
100.312478247913
100.31176071944
100.312940696823
100.313013300929
100.31205366002
100.313564802724
100.313689048985
100.313230087371
100.316590788903
100.318711354193
100.317287698436
100.319085915704
100.318919151656
100.316781306845
100.314368878122
100.309019149225
100.303624547343
100.301944655286
100.304860309847
100.303945081059
100.300314691793
100.302598214354
100.303080282767
100.301751144517
100.30516219138
100.306190361273
100.304546042574
100.306655875791
100.306458908911
100.304211134965
100.307333720296
100.307667796521
100.30408627547
100.305106925105
100.310090003079
100.315046925245
100.310151025285
100.30882741637
100.308558058209
100.309583966273
100.323309102386
100.32445236746
100.322308043738
100.315822933891
100.316138724413
100.313820028988
100.31054441854
100.312350363844
100.3134251915
100.313549161296
100.316123149373
100.317726493114
100.318029610519
100.319178915063
100.318442812196
100.316247838082
100.31843626121
100.319754559019
100.318813152573
100.324188400157
100.325732678346
100.323656531615
100.32898613666
100.328677220065
100.367818669213
100.363660925547
100.359397406777
100.357508333441
100.350834712246
100.346993528967
100.343060902045
100.345560556235
100.341427012051
100.344462765673
100.346928021817
100.358732172966
100.380731124353
100.384514067077
100.365306511624
100.348335168143
100.344523475766
100.393037871326
100.43007609746
100.414021863605
100.420569759421
100.432034027214
100.417804641295
100.403332928973
100.354933015747
100.352578541588
100.349461255508
100.353405623076
100.349058183908
100.351326476613
100.354191736373
100.359566884205
100.360726847869
100.363977546867
100.36788964177
100.409520576063
100.409772991599
100.425411796297
100.41357161474
100.404673127605
100.399778417635
100.395390322036
100.402103578716
100.382722841937
100.377895158226
100.393184788174
100.382404109262
100.392325401194
100.397508456574
100.403245705512
100.415805084578
100.448745613625
100.449138946054
100.457199104688
100.468604237272
100.446106163063
100.445993688838
100.439545683395
100.404043620579
100.392409693554
100.4120815371
100.443152131485
100.461669117851
100.474523190893
100.47902373675
100.480753908446
100.483429711767
100.484568143766
100.484742616162
100.484919956423
100.484955986744
100.484659312514
100.48490260322
100.485369090031
100.485655832712
100.485613437089
100.485118621027
100.484588315626
100.484521726846
100.485132642859
100.486288587834
100.487206627624
100.488463267905
100.490452511726
100.496295451259
100.505508501311
100.525623540611
100.51914814857
100.472396085207
100.428515329518
100.381846631413
100.355953819491
100.372645221057
100.372847922265
100.370974717174
100.371051193314
100.372007489555
100.373037977326
100.374133001786
100.375432959924
100.376889983826
100.378321093234
100.379532382157
100.380388915356
100.380802063777
100.380315461715
100.379707448298
100.378946233826
100.378018742047
100.376904887452
100.375539107551
100.373918559797
100.372163930378
100.370429637485
100.368882971287
100.367602347809
100.366602969168
100.365811417479
100.365180716443
100.36471324712
100.36448165808
100.36455695045
100.365092396119
100.366291650373
100.368116559233
100.370039498015
100.371546107958
100.372139901641
100.372083660557
100.372133292636
100.372125909702
100.37214124763
100.372182939377
100.372191291698
100.37224482269
100.372403894148
100.372657554436
100.3728600436
100.372916489969
100.372990149395
100.37291541668
100.372658639583
100.372516818876
100.372405344849
100.372430769141
100.372629151504
100.372505621891
100.37227980155
100.372174437584
100.372126359513
100.372094484689
100.372092122268
100.372066844745
100.372057735749
100.372070452532
100.372047659575
100.371922900048
100.371982805431
100.372021093706
100.372021053749
100.372025727365
100.372048440892
100.372074782483
100.372092085632
100.372139355683
100.372353533258
100.372072172981
100.372136038391
100.372131294697
100.371965687396
100.371931465146
100.371989202788
100.371998489551
100.371962578853
100.371960334635
100.371951674024
100.371948042304
100.371895401668
100.371865760689
100.371603410553
100.370936430797
100.371570137959
100.37184400369
100.371853297726
100.371891322122
100.371882046527
100.371902672323
100.371893239049
100.371919909365
100.371857237164
100.371958967532
100.372070985905
100.372078681895
100.371923994444
100.37191242115
100.371865973912
100.371754627404
100.371618652866
100.371659741973
100.371591209331
100.371793869779
100.371856193843
100.371856113581
100.371833156429
100.371858009727
100.3718125485
100.37184660731
100.371824292413
100.371842480291
100.371803591433
100.371789351427
100.371517384108
100.370675019693
100.371484551552
100.371759275851
100.371765633116
100.371797847638
100.371775492709
100.371787896
100.371791648359
100.371786569576
100.371762808548
100.371776082672
100.371720498995
100.371524699036
100.371543945456
100.371677734767
100.371563102652
100.371683638692
100.371583699115
100.371711976833
100.371706669198
100.371749698818
100.371770994653
100.371734766833
100.371765389489
100.371755348105
100.37174758303
100.37172782895
100.371708621799
100.371447843118
100.370599144881
100.371452940283
100.371696452388
100.371705671535
100.371718430142
100.371731026146
100.371712873331
100.371722648523
100.371688265502
100.371637046602
100.371670909143
100.371638577628
100.371596825787
100.371511360023
100.371251248377
100.371092988584
100.371029281868
100.371377902186
100.371235721636
100.371493658187
100.371591378121
100.371628205061
100.371664059009
100.371699369769
100.371690978684
100.371707981422
100.371692734235
100.371681071999
100.371674066178
100.371450555404
100.370552358525
100.371553681892
100.371659475468
100.371670276307
100.371665225002
100.371683166946
100.371653475899
100.371706726021
100.371691048703
100.371605810769
100.371609337946
100.371549716469
100.371406834089
100.371280475155
100.371521569891
100.371596981526
100.37164089036
100.371620133463
100.371562031932
100.371387247149
100.371202430519
100.370763182176
100.370328059082
100.370789951071
100.370825140325
100.371290921434
100.371174314005
100.37145217332
100.371603244508
100.371646758903
100.371704569131
100.371695738054
100.37165008859
100.371626613832
100.371684322224
100.371684641822
100.371636280833
100.371633357535
100.371571882747
100.371305207202
100.370227032417
100.368684080927
100.370574590783
100.371437874578
100.37155524221
100.371619830289
100.371629220709
100.371676642546
100.371662424599
100.371623174695
100.371744668964
100.371747888138
100.37164515063
100.371669752997
100.371626583467
100.371468255105
100.371316080069
100.371603044128
100.371697801166
100.371730718682
100.37173841292
100.3717307338
100.371599382785
100.371299771861
100.370915812798
100.371222253037
100.371551397293
100.371424515549
100.371722877804
100.371799526068
100.371800944956
100.371688083998
100.371768764461
100.371762028223
100.371596409684
100.371583797514
100.371652324909
100.371596937857
100.371602938967
100.371539413422
100.371460218115
100.370728243953
100.36906669432
100.371085677251
100.371532034911
100.371550898721
100.371578105042
100.371668696691
100.371652262497
100.371560499437
100.37153523506
100.371473214984
100.371307849139
100.370655142874
100.369132049401
100.367786134295
100.369921172992
100.371036096925
100.371369197872
100.371467018456
100.371525108747
100.371562446585
100.371600598124
100.371728960459
100.371759076273
100.371706918739
100.371812459314
100.3718135927
100.371717675457
100.37159220873
100.371806961553
100.371847942758
100.371811719527
100.371778655314
100.371843063973
100.371740030453
100.371490310449
100.371051344003
100.371556788549
100.371667158816
100.37185889346
100.371797257005
100.371873708437
100.371806055197
100.371658517121
100.371735385361
100.371749809403
100.371569083804
100.371556991166
100.371581269165
100.371589490147
100.37149402636
100.371447185793
100.371369653912
100.371204155445
100.370265069291
100.368762105004
100.370898362194
100.371344110775
100.37134571093
100.371420579982
100.371467298717
100.371554805565
100.371489890238
100.371483600718
100.371467152965
100.37171020247
100.371686669039
100.371739064951
100.371844788628
100.37181039355
100.37159757096
100.371086329169
100.371584117259
100.371643635433
100.371822878083
100.371797437049
100.371824987566
100.371730525291
100.371582534007
100.371641051339
100.371492486434
100.371454559973
100.371379425068
100.371389551565
100.371319865551
100.371254144249
100.371187197509
100.370692398723
100.369099993833
100.368228253572
100.370238479969
100.371091786111
100.371188667534
100.371247240173
100.371312459997
100.3713063036
100.371382198948
100.371395651597
100.371607702131
100.37160097775
100.371658773654
100.371788695476
100.371794931651
100.371574353787
100.371113724702
100.371578545647
100.371791030061
100.371745484335
100.371746964894
100.371765118195
100.3716438993
100.371522751047
100.371544444883
100.371421859369
100.371352810423
100.371298248619
100.3712364414
100.371243965762
100.37117606461
100.371162606174
100.370624847841
100.369704628779
100.371065918667
100.371155618148
100.371170522593
100.371169860058
100.371252778637
100.371269265486
100.371307274311
100.371514036987
100.37146855118
100.371438444584
100.371421076024
100.371567757934
100.371715137995
100.371777072212
100.371615780352
100.371126072825
100.371510845199
100.371665932735
100.371639882969
100.371511642103
100.371455640647
100.371605384145
100.37161359087
100.371440050704
100.370967738492
100.371406261528
100.371404345227
100.3715558847
100.371593020644
100.371544329753
100.371447829239
100.371373312065
100.371379455561
100.37144103347
100.371301587158
100.371257765557
100.371249331256
100.371222093484
100.371213545522
100.371169122598
100.371142888224
100.371079466766
100.371137491693
100.370192611811
100.369744895259
100.371029956533
100.371118166407
100.371122485163
100.371140701791
100.371182554134
100.37123283939
100.371249804385
100.371213261916
100.371234089006
100.371263983183
100.371379077381
100.371342310498
100.371346139934
100.371346109431
100.371395856305
100.371517108524
100.371562965051
100.37148479575
100.37103031818
100.371436560332
100.371535842276
100.371496006653
100.371372543403
100.371354166787
100.371512268155
100.371556469059
100.3714819035
100.371088720195
100.371476566042
100.371546123142
100.371578094168
100.371662053342
100.371520237727
100.371375446031
100.371365701559
100.371332543499
100.371365021651
100.37128321843
100.371256263866
100.371215950742
100.371245398062
100.371179176185
100.371162193514
100.371123340523
100.371039491416
100.371100017672
100.370212766556
100.370010081752
100.370981601603
100.371110228706
100.37110658975
100.371137602245
100.371196197309
100.37121570484
100.37122939691
100.371266617886
100.371245143744
100.371229618217
100.371204961156
100.371193800043
100.371145230737
100.370884263533
100.371008815877
100.371161889676
100.371167005879
100.371255023937
100.371253582065
100.371277228496
100.371294875057
100.371291706681
100.371370447639
100.37132881548
100.37137498665
100.371378927944
100.371392135861
100.371546171606
100.37167836837
100.371529318979
100.371539171019
100.371507151884
100.371354182871
100.371401172744
100.371574102125
100.371636111029
100.37162713719
100.371375993623
100.371536290764
100.37158169374
100.371537113565
100.37138638047
100.3714054945
100.371354172277
100.371319884589
100.371278059435
100.371331177981
100.371299660212
100.371304355027
100.371280081568
100.371282168808
100.371275917605
100.370858501748
100.37127944001
100.371274333208
100.371268333353
100.371356356133
100.371338566981
100.37134631912
100.371370530772
100.37134134103
100.371392940622
100.371416287605
100.371427165583
100.371576956523
100.371635281856
100.371647451836
100.371366432831
100.371530809974
100.371572689682
100.37153211998
100.371410989288
100.371413308114
100.371377852834
100.371376632306
100.37134312744
100.371391391139
100.371369205883
100.371391582176
100.371385222194
100.371413574794
100.371380606079
100.371024373569
100.371452033529
100.371359046988
100.371404168876
100.371451535772
100.371415257629
100.371410139496
100.371402542551
100.371406403301
100.371405695514
100.371458683855
100.371455362774
100.371577957896
100.371629593099
100.371665601616
100.371397853004
100.371580679986
100.371603204202
100.371563681786
100.371445047798
100.371440174689
100.371480214166
100.371482382727
100.37159831653
100.371644842297
100.371709065031
100.371477747607
100.371611684462
100.371628208406
100.371578052919
100.371459759645
100.371469133608
100.371445244512
100.371412388469
100.371446484675
100.371439135894
100.371442909085
100.371460664256
100.37146488392
100.371507543777
100.371484700479
100.371231597822
100.371402659662
100.371448720452
100.371525013368
100.371518059554
100.371497360135
100.371484400056
100.371470984391
100.371475293727
100.371481946765
100.371504774819
100.371501051382
100.371637515154
100.371711650289
100.371797212027
100.371587935849
100.371706982031
100.37168977397
100.371620412111
100.371493715826
100.371499583216
100.371545193599
100.371545161151
100.371685121718
100.371768792419
100.371854621919
100.371677325025
100.37176432019
100.371738603027
100.37168119868
100.371533947274
100.371539352898
100.371525360021
100.371487317469
100.371518000668
100.371516689419
100.371543990487
100.371550314097
100.371551834568
100.371584508695
100.371578156589
100.371514678153
100.371515159564
100.37155144798
100.371495250894
100.371526240711
100.37082339423
100.371087305059
100.369954406028
100.37054513757
100.369122515811
100.367663700254
100.368493527078
100.36720986418
100.368216792429
100.367075068358
100.366302144217
100.367214669681
100.366537171254
100.366156376255
100.367241405354
100.367018575052
100.366974628667
100.368560493423
100.368716203498
100.368925564906
100.369220860676
100.369584055504
100.371133287321
100.370835200531
100.371256101487
100.371628392864
100.371893252896
100.372334840606
100.372185081635
100.372250954682
100.372303146299
100.372348407203
100.372384325918
100.372444222888
100.37255115216
100.372813428321
100.373064028886
100.373291098775
100.373361091728
100.373366580386
100.373188588413
100.373078359495
100.372844030476
100.372533205718
100.372426162963
100.372488797272
100.372605711807
100.372887785501
100.372619329689
100.372452558795
100.372358068493
100.372132940357
100.371872774477
100.371508861952
100.371143564162
100.371268225267
100.371330864091
100.371188033856
100.370941180327
100.371024285922
100.371152083343
100.371418286989
100.371590985585
100.371493909542
100.371528308515
100.371626986691
100.371572300747
100.371610741439
100.371596510282
100.371880940945
100.371807272582
100.371845556005
100.371890011347
100.371940937856
100.37202188065
100.372080593022
100.372204529992
100.372238687414
100.372288459448
100.372327305867
100.372378369154
100.372567642312
100.372854471215
100.373089116143
100.373180051704
100.373193209534
100.372977062767
100.372696236857
100.372302188043
100.372198330854
100.372240673989
100.372245260539
100.372333943768
100.37254725739
100.372685101021
100.372949877626
100.373196349282
100.373417548854
100.373508159758
100.373516865659
100.373378480154
100.373125457276
100.372842238239
100.372696981568
100.372246050022
100.371798520147
100.371344705128
100.371459641759
100.371614163873
100.371548481159
100.371424739902
100.371322750637
100.370539474914
100.37005455083
100.3699273373
100.369854700243
100.36967356027
100.369803936854
100.370215352961
100.370405935155
100.37045431686
100.370084047488
100.370458525368
100.370685999442
100.370767529689
100.37050572363
100.371563740997
100.37189536218
100.371920511219
100.372006515464
100.372014983671
100.372117964259
100.372149573018
100.372159417442
100.372182210635
100.37212197101
100.372200773959
100.372235850488
100.372311287143
100.37238936969
100.372431963948
100.372463480847
100.372565691953
100.372654531917
100.372803698745
100.373066982067
100.373337759623
100.373584596784
100.373662304415
100.373665639501
100.373544587368
100.37329277534
100.37299619399
100.372550473126
100.372103963261
100.371644225286
100.371488816206
100.370787629788
100.370442513075
100.370291608874
100.370174628559
100.370054120925
100.36981608349
100.369842276102
100.370226031804
100.370473128702
100.370521057342
100.370648206529
100.370311194074
100.370696121832
100.370945678981
100.370720681029
100.371334606352
100.371833522632
100.372135312933
100.37229458249
100.372283143397
100.372268125119
100.372379705994
100.372474254386
100.37252550101
100.372624327705
100.37266642965
100.37274897359
100.372887389716
100.373172011738
100.37345685172
100.373693017643
100.373779374227
100.373787163035
100.373661337964
100.373416991238
100.373107124182
100.372682012007
100.372237777015
100.371765912722
100.37111287133
100.370834220735
100.370667740795
100.370353848595
100.370129905197
100.370045135828
100.369852018288
100.369609443591
100.369854286338
100.370096049168
100.369797140451
100.369682443118
100.369451765681
100.369159219288
100.368888867521
100.368687712417
100.368545002085
100.368467586287
100.368747727665
100.368984628799
100.369180358652
100.369432703022
100.369630193585
100.369270324461
100.369353305961
100.369613382282
100.369683221505
100.370483343071
100.371035766267
100.371730224208
100.37202387686
100.372104130336
100.372246225827
100.372266876439
100.372462046184
100.372476286606
100.372377551268
100.372453184028
100.372561587067
100.372647347543
100.372712340571
100.372746827402
100.372841126075
100.37299818217
100.373302174996
100.373589724593
100.373817635726
100.37390546161
100.373912153332
100.373794223064
100.373548537408
100.373245957875
100.372809771696
100.372380369437
100.371927348602
100.371279217838
100.371014899605
100.370758083903
100.370569282895
100.370537176729
100.370272744424
100.370124202987
100.370401101556
100.370134047655
100.369881055406
100.369634232251
100.369296699912
100.368983252202
100.368517304615
100.368781424387
100.369191523345
100.369488768093
100.369638418889
100.369877446823
100.369868830584
100.369715425193
100.369010574777
100.369301093972
100.369458454172
100.369475476796
100.369601901219
100.369192346259
100.368708325437
100.368085867749
100.367486775794
100.36633013757
100.366228757414
100.366790470091
100.367439285841
100.367994049438
100.368549087728
100.369083957723
100.369951508105
100.367661563474
100.367095290895
100.366734083157
100.366551804597
100.366316864723
100.366219070028
100.365363647051
100.364311026996
100.361955677172
100.365296050007
100.366567891051
100.36564575913
100.364358717323
100.363281673133
100.361509639506
100.359968137193
100.36093158621
100.361922233448
100.36376700304
100.363714851653
100.36429090215
100.365330991365
100.36641639613
100.367049055988
100.367761673519
100.368355005297
100.368981047293
100.369503188685
100.370010896805
100.36960611875
100.37034246881
100.368447584775
100.372951673973
100.372985618732
100.372770655395
100.372495334434
100.372008836101
100.371186820479
100.369904539103
100.368484587731
100.367566989201
100.366360190307
100.367825262136
100.367750604572
100.365954436904
100.363232943178
100.361709105947
100.360811723831
100.353189520424
100.35540774942
100.356059537103
100.357573410306
100.359939621716
100.361607656901
100.365936864401
100.367998625286
100.370190826858
100.370250932979
100.370576781408
100.368883110841
100.369304425812
100.369717683477
100.370219277494
100.370528815197
100.371028410343
100.372201866497
100.372466933815
100.372577825697
100.37236603237
100.372528817408
100.372612551233
100.37273755891
100.372805587199
100.372835014742
100.372948261714
100.373090455425
100.373354758085
100.373642323121
100.37387415023
100.373971675361
100.373984222588
100.373878390901
100.373621018717
100.373335591011
100.372872421619
100.372446562999
100.372035425193
100.371412686215
100.37117036679
100.37091562905
100.370782230274
100.370741651939
100.370625114202
100.370862363134
100.370663857503
100.370700897901
100.370796543986
100.370922745481
100.370713194584
100.370534857703
100.37018950398
100.37032299937
100.370559789445
100.370442023158
100.370172598131
100.36980358373
100.37021207889
100.369822169749
100.369454765391
100.369103078263
100.368717634844
100.368292701649
100.367900656724
100.367247678683
100.367600399322
100.368105482948
100.368526247696
100.36879383307
100.369139976214
100.369494358748
100.369475742742
100.369256764799
100.368776745684
100.368329315364
100.368133670152
100.368561364059
100.36864145942
100.370039016386
100.370972659398
100.371332246767
100.371653018113
100.372608706974
100.37273113756
100.372663830963
100.372493899256
100.372691987879
100.372809021006
100.372872390224
100.372914564799
100.373043765824
100.373167647185
100.37338413414
100.373695549919
100.373928476469
100.374026976228
100.374036567945
100.373946972202
100.373699511741
100.373419780743
100.372975512976
100.372600457472
100.372156780343
100.371613450341
100.371352648005