/*--------------------------------*- C++ -*----------------------------------*\
| =========                 |                                                 |
| \\      /  F ield         | OpenFOAM: The Open Source CFD Toolbox           |
|  \\    /   O peration     | Version:  v1612+                                |
|   \\  /    A nd           | Web:      www.OpenFOAM.com                      |
|    \\/     M anipulation  |                                                 |
\*---------------------------------------------------------------------------*/
FoamFile
{
    version     2.0;
    format      ascii;
    class       volScalarField;
    location    "1.1";
    object      p;
}
// * * * * * * * * * * * * * * * * * * * * * * * * * * * * * * * * * * * * * //

dimensions      [0 2 -2 0 0 0 0];

internalField   nonuniform List<scalar> 
80571
(
100.260387376742
100.259970413543
100.259429881793
100.262320373916
100.266779584787
100.266807308824
100.26720378473
100.267902424422
100.265731408421
100.265786184579
100.265977805142
100.265860912955
100.265971220324
100.266147654566
100.265899882648
100.265754046418
100.267918255774
100.267192347777
100.266793206409
100.266769096419
100.267476318018
100.26802229546
100.265745177435
100.266058587058
100.266318277284
100.26563050315
100.26563058577
100.266318822076
100.266059226899
100.265746212514
100.268027316416
100.267480545615
100.26677173049
100.266794962255
100.267192962952
100.267917806539
100.265757152228
100.265902805487
100.266148359999
100.26597390184
100.265864036387
100.265980734313
100.265791022979
100.265735677352
100.267902868226
100.267204445241
100.266808910933
100.266782435486
100.267492450785
100.268042042287
100.265753145249
100.266067479526
100.266330362486
100.2656424144
100.265642744765
100.266331079096
100.266067638384
100.26575228073
100.268037633426
100.267488484835
100.262735048844
100.263005686073
100.262359382836
100.262065632133
100.262427677294
100.262701975623
100.262702066979
100.262427592252
100.262064884484
100.2623596825
100.263007501075
100.262736241573
100.262322498699
100.262703241134
100.263422116855
100.263820569962
100.263872644512
100.264001745504
100.263626542064
100.263999744288
100.264062751117
100.263655946842
100.263966224899
100.263861243891
100.263824097087
100.263415954862
100.262709551871
100.262313469539
100.262729747608
100.262997285265
100.262350074514
100.262055130551
100.262416685961
100.262691338995
100.262691409473
100.262416916611
100.262055023825
100.262349638712
100.262996585581
100.262729288272
100.262311489459
100.262707951988
100.263413975099
100.263822683852
100.263858543133
100.263961143648
100.263652167255
100.264058641628
100.263995551763
100.263623210211
100.263997091532
100.263869936741
100.263819262749
100.263419903565
100.262701228812
100.259930680353
100.260957388899
100.259277875751
100.259922373238
100.260240463693
100.259983870158
100.260539483078
100.258646031375
100.258620262272
100.259641567358
100.259641872846
100.25861927328
100.258643972134
100.260539278725
100.259987526827
100.260062744791
100.259431937036
100.259931514738
100.260959398744
100.261125774271
100.262364557123
100.262576114558
100.261465688066
100.261366545146
100.261316646364
100.261373228631
100.262494148291
100.262326708134
100.261115400279
100.26095281781
100.259929925962
100.259428434312
100.260053532929
100.259975612413
100.260528977581
100.258634228736
100.258609009876
100.259631581742
100.259631589717
100.258609022283
100.258634407751
100.260528752173
100.259974297393
100.260053169252
100.259426301047
100.259929177355
100.260950767327
100.261115001569
100.262324217633
100.262484920275
100.261366506932
100.261312208006
100.261362302777
100.261458032671
100.262566120935
100.262361803765
100.261127099456
100.259267124221
100.251208714937
100.25154040607
100.25159389113
100.251787771217
100.252053120426
100.260940099384
100.259615896972
100.259783320796
100.25978280276
100.259613818325
100.260941964172
100.260242189596
100.259918392293
100.259971164779
100.259281281049
100.259263472461
100.25938446753
100.263771992431
100.261029223043
100.26095903009
100.263684969461
100.259378149266
100.25926314168
100.259292506184
100.259893448797
100.25996610968
100.260384973797
100.261230401346
100.261972094267
100.261842009822
100.262379884349
100.264623248465
100.264654614927
100.263243746984
100.261850838939
100.260863375072
100.260250784838
100.259965725296
100.259965541308
100.260250217245
100.260862387839
100.261849417019
100.263242080576
100.265091715264
100.265316606324
100.263809622665
100.262160004424
100.260946038582
100.260105912391
100.259602655621
100.259354550263
100.259354740655
100.259603250955
100.260106914044
100.260947446125
100.262161789708
100.263811898946
100.265317752852
100.265092881272
100.263149558466
100.263455843982
100.263273888946
100.262812972299
100.262586483489
100.262014662177
100.262795398399
100.26252921266
100.261021614844
100.257956427006
100.252634834721
100.251218816416
100.251539726332
100.251605296296
100.251796118012
100.252052878723
100.252052337862
100.25179452156
100.25160243234
100.251536598436
100.251215429577
100.251283987879
100.251272323681
100.250101442173
100.249966710126
100.250041722831
100.249903753763
100.249973439486
100.250035919555
100.250036629214
100.252054037529
100.251789275605
100.251596409726
100.251543558207
100.251211787369
100.251273733128
100.251285685561
100.250107103585
100.249967032417
100.250038292478
100.249914964945
100.249978752251
100.250035646721
100.250034890769
100.249976623517
100.249910862563
100.25003423285
100.249960925486
100.250102026258
100.250544477882
100.250549304158
100.250430478434
100.250472428645
100.250353276186
100.250393807088
100.250391916237
100.250392742964
100.250396806419
100.249975477076
100.249907757301
100.250045764349
100.249972649516
100.250106449579
100.250557483652
100.250552809957
100.250431834687
100.250472653545
100.250354201614
100.250390049576
100.250386446773
100.250385486793
100.250386740625
100.250348719463
100.250466022472
100.250423211342
100.250170148378
100.250219132491
100.250221675103
100.250178573004
100.25025154918
100.250194254198
100.250213056968
100.250202086607
100.250203766143
100.250217532592
100.250201783171
100.250358457254
100.250478859974
100.25043882097
100.250190042101
100.250233900284
100.250231598203
100.250182236911
100.250251046475
100.25018888969
100.25020251794
100.250187864804
100.250185994427
100.250197348693
100.250180606531
100.250241146003
100.249217663797
100.249151786864
100.249194498411
100.249197564193
100.249162312453
100.249235111682
100.249206988493
100.249223302508
100.249235098292
100.249237907466
100.249230333176
100.249218621655
100.249249801439
100.250261062114
100.250428644612
100.249368061603
100.249179943596
100.249216471376
100.249213727234
100.24917050644
100.249232801851
100.249195360631
100.249206134577
100.249211690672
100.249208339417
100.249197970523
100.249182642878
100.247949632398
100.247982521017
100.247932072326
100.247995355297
100.248001514909
100.247952730132
100.248007562651
100.247987631728
100.247994986654
100.248029235096
100.248033515194
100.24800683343
100.248005567742
100.248030669851
100.247980452171
100.248031185186
100.248025222998
100.247960872829
100.248006881805
100.247970076225
100.247968226048
100.247991433916
100.247986220142
100.247955104997
100.246607132444
100.246647292109
100.246675623798
100.246614706176
100.246713731575
100.246722947216
100.246649344378
100.246720694912
100.246704093247
100.24667107552
100.246740208884
100.246746686822
100.246689303107
100.246732805868
100.246757386786
100.246692286823
100.246769323448
100.246759896572
100.246658304399
100.24671668202
100.246676268114
100.246629113061
100.246679908085
100.246670574124
100.245045481216
100.244876146693
100.245013933704
100.245041057552
100.244919932081
100.245121544427
100.245134006444
100.244972761252
100.245117604071
100.245104741347
100.244981243534
100.245154668662
100.245164458205
100.245010639557
100.245148834784
100.245175260717
100.245039226329
100.24520520687
100.24519056476
100.244984110025
100.245101598668
100.245058443805
100.244924686009
100.245061762557
100.242722083619
100.242699425179
100.242248606927
100.242573285527
100.242606358791
100.242338985551
100.242813542784
100.242831863615
100.242416892666
100.242725867875
100.242716711079
100.242405414313
100.242864409872
100.242878965487
100.242447193167
100.242779754639
100.242814199864
100.242521470349
100.242941876873
100.242915661582
100.242434179278
100.242707526162
100.242650012089
100.242304444892
100.237337309734
100.238558926202
100.238522344829
100.237247013217
100.238113100573
100.238150947914
100.237427686874
100.238742961488
100.238767025992
100.237543085992
100.238343665355
100.238344576288
100.237508323122
100.238785039434
100.238804993211
100.237568758222
100.238437707137
100.238481642927
100.237716660248
100.238948189573
100.238898886429
100.237564007499
100.238300046977
100.238230671951
100.231605048613
100.22963030226
100.232446024602
100.23238618851
100.22947062235
100.231413222639
100.231462796752
100.229904156751
100.232847446053
100.232836336051
100.229994881944
100.231798106762
100.23179625978
100.229902807712
100.232790058081
100.232808894088
100.229975496715
100.231944654122
100.232015934615
100.230288987061
100.233128813683
100.233039533748
100.230041286964
100.231708095091
100.240634669016
100.240533721815
100.238656974564
100.240938269196
100.240856010031
100.238470013727
100.240215714771
100.240188461598
100.238825691318
100.241265153865
100.241596753214
100.239151001747
100.24084928358
100.240796681026
100.239201525954
100.241403345239
100.241387526188
100.239027040679
100.241066493417
100.241118010679
100.239839084266
100.242100164737
100.241904610668
100.239391768716
100.276330970931
100.270769131976
100.270903865206
100.275744589308
100.271454630902
100.271414630953
100.275562700096
100.270579095094
100.270308126688
100.27572235516
100.27199791864
100.272319148213
100.276501523269
100.271052578625
100.271314973077
100.276225088033
100.271980630717
100.272030957749
100.276401081562
100.271598916928
100.271414703028
100.277008694206
100.272863881605
100.272586204813
100.310828577046
100.327558969014
100.316123662354
100.326152056154
100.308626980807
100.325064486813
100.314556331905
100.326186074205
100.308754882752
100.308765905388
100.326148728695
100.314393280692
100.324642709125
100.325549276197
100.31551922448
100.326922990394
100.343876034332
100.344319803282
100.327725298276
100.310641415851
100.310210157973
100.357211593564
100.386419757849
100.373747296591
100.374510599406
100.384182515987
100.3732545556
100.361074319846
100.316589863289
100.326938327268
100.325649727891
100.309178901395
100.363978149456
100.384958100702
100.36597050693
100.365197797346
100.371532595636
100.380310993353
100.358115116605
100.315004321696
100.326672462053
100.342925008655
100.30927756538
100.309358799615
100.326855463862
100.3152709732
100.326005538037
100.309550535837
100.327346001867
100.317093552896
100.32827414545
100.311237737381
100.345015451889
100.344646900206
100.374633072663
100.382943388167
100.360161520986
100.372247002391
100.364971260602
100.364592761914
100.371032648266
100.357769521072
100.380246452748
100.371015575899
100.371041800427
100.3802497571
100.370776258668
100.364139603778
100.364362117257
100.371537226308
100.382093353953
100.399285513991
100.402323671007
100.40801926132
100.408177278048
100.403697809302
100.395497082403
100.394592878795
100.409434203902
100.415273289341
100.414007922224
100.414151366334
100.413899675746
100.413275613776
100.41193599034
100.401509990726
100.405597612444
100.403302843136
100.393450989338
100.413618083432
100.414893810192
100.414035805125
100.411413815264
100.411252252835
100.410943232501
100.40162228633
100.391636996777
100.403134944088
100.410850204855
100.412654601538
100.415803205622
100.416354426453
100.416231419193
100.41680883128
100.417153498042
100.417217330927
100.417280994952
100.417349878759
100.417422518856
100.417495532517
100.417573276348
100.417651652671
100.417724242494
100.417804266478
100.417868253497
100.418053968009
100.418640042932
100.420120504155
100.423022312055
100.428753790576
100.437580488095
100.45448609847
100.446502656227
100.400493795151
100.356889759176
100.310949222605
100.286318621446
100.301383771547
100.30217476819
100.300002087429
100.29976345107
100.300681314397
100.301781292148
100.30295058984
100.304329371709
100.305869416989
100.307352996734
100.308553614787
100.309355394181
100.309716624746
100.309023755361
100.308121940576
100.307030891436
100.305740229077
100.304182015933
100.302392928593
100.300571658211
100.298923759326
100.297604884864
100.296630330657
100.295969011807
100.295526528522
100.295220672209
100.295009252624
100.294870612364
100.294831586763
100.294916694867
100.29525149048
100.295957803922
100.29722640163
100.299095948638
100.300606607708
100.300985819077
100.301065279044
100.301071165491
100.301108782717
100.301099418984
100.301132843789
100.301163989935
100.301149404973
100.301163893257
100.301128834664
100.301021879686
100.30086271442
100.300975894844
100.301137159158
100.301285890168
100.301231787356
100.301092275444
100.301153518534
100.301170368968
100.301152826996
100.301151850394
100.301167587731
100.301162937081
100.301119687871
100.301123518258
100.301096363462
100.301090455449
100.301070119335
100.300941065323
100.300821837823
100.301014473202
100.301087535021
100.301106225774
100.30111760291
100.301129813933
100.301175819162
100.301167515883
100.301162369845
100.301189248393
100.301207802301
100.301306767298
100.301270860588
100.301388720229
100.301453347588
100.30142064898
100.301334053526
100.30122058585
100.30117919501
100.301198817744
100.301192951105
100.301154602376
100.301146582138
100.301134434376
100.301126541349
100.300998585167
100.301013658783
100.301164202865
100.301181258923
100.30117451223
100.301180527222
100.301187726236
100.301216196416
100.301246969178
100.301243180876
100.301254837642
100.301257705447
100.301435427784
100.301568555058
100.301613942781
100.301569428177
100.301440353597
100.301639389648
100.301679670692
100.301813303039
100.30189019978
100.301854795055
100.301718530934
100.301641343907
100.301505277075
100.301294486626
100.301296374498
100.301264635362
100.301230679555
100.301206302644
100.30120718182
100.301219161889
100.301175528197
100.301228931103
100.301007875414
100.300827203874
100.301125865992
100.301223251493
100.301217496094
100.301248271975
100.301270906363
100.30126172821
100.301305804766
100.301313401141
100.301328608885
100.301366209859
100.301365528273
100.301581814926
100.301726186329
100.301822424676
100.301813318014
100.301837106831
100.301713497154
100.301686847263
100.301512896569
100.301467578113
100.301410399125
100.301389751531
100.301329473361
100.301275320804
100.301304884555
100.301316346459
100.301267102272
100.301279746998
100.301094546515
100.301142223802
100.301269335833
100.301341287547
100.301336651575
100.301364900648
100.301357591068
100.301418286818
100.301465811098
100.301509306267
100.301549629666
100.301759282134
100.30191704834
100.302022728016
100.302044939684
100.30192385755
100.302070839578
100.302056217
100.302124251441
100.302192935786
100.302150117222
100.302078578389
100.301932112224
100.30177850656
100.301580807374
100.301555368183
100.301555082953
100.301492535249
100.301527256444
100.301439600749
100.301403113335
100.30142418629
100.30125946004
100.30138791263
100.301479956888
100.301506518029
100.30146628471
100.301536713611
100.301547085399
100.301574795805
100.301566608697
100.301625583369
100.301633287702
100.301834625213
100.301988981586
100.302106813087
100.302123201917
100.302124792521
100.301957395024
100.301933618406
100.301740094843
100.301683454053
100.301616935552
100.301616177598
100.301585440134
100.301592698822
100.30161048273
100.30156683075
100.301511925405
100.301596055771
100.301321242012
100.301470862283
100.301542888323
100.301619554446
100.301581179981
100.301622455677
100.301650294287
100.301681550669
100.301658059015
100.301719559308
100.301699382349
100.301771821169
100.302039968781
100.302217467606
100.302332172287
100.302321211019
100.302377343679
100.302437712172
100.302399055164
100.302247976765
100.302070995444
100.301852689193
100.301813853479
100.301714214818
100.301716029733
100.301752088603
100.301677510208
100.301700886353
100.301746919584
100.301685835728
100.301733288586
100.301673512221
100.301482097277
100.301695679606
100.301682621473
100.30171425747
100.30177983992
100.301746160664
100.301854292614
100.301785030996
100.301874885973
100.301854087899
100.301894544262
100.302005916379
100.302191530154
100.302372968808
100.302382660503
100.302348337419
100.302187124111
100.302241113255
100.302413421933
100.302554257205
100.302481032165
100.302595737667
100.302479821023
100.302497592033
100.302494322475
100.302321809697
100.30211246621
100.301978311269
100.301938199504
100.301857013017
100.301844962122
100.301882283955
100.30182048149
100.301831589491
100.30183758265
100.30181966636
100.301783183875
100.301819664253
100.301814460785
100.301499228643
100.301847138356
100.301738053351
100.301657788693
100.301864279283
100.301827494037
100.301865815277
100.301893143604
100.301866120296
100.301921607453
100.301912922302
100.302030329694
100.302116023753
100.302148733992
100.302386235545
100.302561806217
100.302739524673
100.302673299812
100.302801859972
100.302730895412
100.302738451431
100.302711969582
100.302505355714
100.302274991962
100.302193255997
100.30204885706
100.302024162255
100.302044311015
100.301944748377
100.301995548144
100.301920430605
100.301885830752
100.301927902557
100.301854564844
100.301852728405
100.301932102099
100.301547747084
100.300735723093
100.301527476558
100.300950944555
100.300114466612
100.301041787432
100.30048813765
100.299770464221
100.298894974086
100.300249522811
100.299731013242
100.298032862307
100.296552469197
100.295560443999
100.295021263842
100.294793233127
100.294749762347
100.294835393361
100.29501890274
100.295305762135
100.295729219722
100.296353573096
100.297254852999
100.298469529426
100.30000364089
100.301725583038
100.303450069776
100.30499781765
100.306309092982
100.307425356137
100.308358587005
100.309082484624
100.309637245122
100.310241019877
100.310644774271
100.310144446605
100.309473245557
100.308589977894
100.307499837698
100.306198342148
100.304624269484
100.302810402665
100.300952285612
100.299251172311
100.297867666706
100.296844695703
100.296155591579
100.295696592717
100.295388441168
100.295172254548
100.295019109319
100.29493540217
100.294948373306
100.29514210855
100.295618157215
100.296589096887
100.298360450265
100.300264801846
100.300945614864
100.301064725076
100.301082193297
100.301100940508
100.301113579023
100.301142422788
100.301165915645
100.301170483206
100.301192092339
100.301133783858
100.300990295354
100.300722571349
100.300809805566
100.300534948142
100.300071756922
100.299424260037
100.29977458482
100.300159289891
100.300627074941
100.30054099452
100.30026719353
100.300648694872
100.300825204743
100.301032391169
100.300820043869
100.301050776461
100.30121912494
100.300834009197
100.300367658446
100.300726729255
100.300942317209
100.301227827051
100.3016155422
100.301555348318
100.30136215999
100.301116226075
100.301031523605
100.301160788572
100.301313577686
100.301264805291
100.301204390114
100.301032907945
100.301195180991
100.301155353017
100.301129313184
100.301064242309
100.301028162233
100.301005303964
100.301012896209
100.301029921812
100.301074558728
100.301098456497
100.301100629016
100.301132302756
100.30115954149
100.301151003718
100.301167694784
100.301123501884
100.300999537112
100.300911281624
100.301045812421
100.301144711913
100.301140435985
100.301160080881
100.301157993065
100.301148553975
100.30112801462
100.301166773273
100.301155383957
100.301175784107
100.301122551177
100.30099860945
100.300752920971
100.300309910031
100.300830616087
100.300405194499
100.299966127308
100.299253626816
100.298305724982
100.297202649049
100.295610371526
100.297036890629
100.297377420491
100.298068514061
100.298683723973
100.299053753713
100.299393182438
100.300106433574
100.300171427285
100.299947316946
100.299434340252
100.2989192265
100.298414772469
100.298179983929
100.298980813831
100.299440084369
100.300071931266
100.300353911184
100.300866284379
100.301030460433
100.301142554075
100.301154381317
100.301036715061
100.301025603716
100.301062859635
100.301089035286
100.301111969834
100.301165431702
100.301152002561
100.301242779065
100.301250394537
100.301328440002
100.301290454392
100.301190100866
100.300926786624
100.300538477385
100.299912130059
100.299156704308
100.299113422302
100.298132661715
100.296945882723
100.295136538259
100.293151041594
100.290295089219
100.291321156984
100.29278803381
100.293841074261
100.29475089679
100.296174691649
100.296384162518
100.295711891284
100.295044511811
100.293790239797
100.293297711393
100.295126218941
100.296511894313
100.296989540858
100.298476896635
100.300052070635
100.300670105416
100.300774835071
100.300856093256
100.301054134338
100.301086719048
100.301088435565
100.301114316866
100.301162370532
100.301240037717
100.301190559712
100.301392948259
100.301401291038
100.301501139364
100.301480376829
100.301385484016
100.301110779487
100.300723766043
100.300009572095
100.299325685049
100.29818521617
100.29708281357
100.295009362038
100.294892049242
100.292697170937
100.289510325316
100.285578473218
100.280263272793
100.260487666488
100.270755685126
100.281494723223
100.28260203384
100.28695807015
100.288202049506
100.28338913469
100.287180037867
100.289498206297
100.291261328044
100.292854610454
100.293803897831
100.295056758918
100.295197731028
100.294434854665
100.292975493339
100.291586462498
100.290128846217
100.289827795779
100.292215355207
100.294252708354
100.295182912306
100.297217447389
100.29845951627
100.300446574852
100.300875053982
100.300848929205
100.300926637428
100.301066557854
100.301025299881
100.301029981591
100.301030800519
100.301039326509
100.301061289535
100.301105050663
100.301135619319
100.301139845286
100.30116715049
100.301246193921
100.301192609419
100.301401836347
100.301414082716
100.301519762522
100.30150070611
100.301426151629
100.301120343061
100.300780344319
100.300006867925
100.299349963395
100.298196706847
100.297082669305
100.295007367458
100.292523049684
100.289316157435
100.289261231233
100.284775211855
100.279301632249
100.254713499445
100.225576863863
100.164869538389
100.18317984285
100.189139456025
100.192793907119
100.19238294074
100.199163826805
100.196518145993
100.192839231354
100.198251328734
100.202925989667
100.201205881381
100.1968845198
100.205609912182
100.201073864203
100.201432607697
100.208750633604
100.202285434385
100.201226001687
100.209208300439
100.204822316165
100.198322790815
100.207414300617
100.204022830055
100.196966365324
100.205626934271
100.20253515036
100.194971985181
100.205749071365
100.207135890463
100.204583946434
100.203839251907
100.201847026462
100.200332448284
100.199866781369
100.199989367791
100.199934501717
100.200307962499
100.200598610074
100.200606801036
100.200260596852
100.200483886387
100.200647776288
100.200719357776
100.200514259876
100.200381400345
100.20077935841
100.20047491713
100.200321157987
100.200260595582
100.200496892615
100.200604559523
100.19989302093
100.199901804105
100.200563262946
100.200466450212
100.200223924202
100.200332636911
100.200479745489
100.20078502338
100.200380492583
100.20051553306
100.200719571723
100.200648254949
100.200485936635
100.20026400711
100.200609665802
100.200602179176
100.200311716477
100.199936908491
100.199986154598
100.199867190958
100.200336886192
100.201309078663
100.202327653636
100.202348613965
100.201300387767
100.20177740761
100.202713282705
100.202722478488
100.201798064274
100.201858072306
100.201695834663
100.201274679405
100.201882872828
100.202090434616
100.200733216932
100.201241660514
100.200980119286
100.201148477708
100.201591222567
100.200679173454
100.201331831202
100.201857643741
100.201972145395
100.202549532963
100.200777597653
100.201741233374
100.201122901
100.201028451433
100.200602710697
100.201167289086
100.202969181304
100.201659706306
100.200372996946
100.201590359676
100.20157397338
100.200350030419
100.20114958007
100.200599030963
100.201022120468
100.20112944184
100.201741161006
100.200771443833
100.202552424735
100.20196761379
100.201851719557
100.201328970708
100.200672760547
100.201587941575
100.201145964913
100.200975182168
100.20123765356
100.200725723977
100.202088655421
100.201884348184
100.20127503993
100.201688179403
100.203699112907
100.20313241486
100.203970218971
100.201508995674
100.200083071673
100.203946532412
100.203144815081
100.202580203695
100.203231549415
100.201984004251
100.202883836448
100.200276846052
100.205933907427
100.205206680105
100.205551110057
100.202010008798
100.201170651229
100.201158756007
100.201997015263
100.203829881513
100.203706587153
100.203138510125
100.203240008819
100.202586908825
100.203145231291
100.202998956014
100.201074107903
100.202025379205
100.203208962029
100.204214057224
100.20236705049
100.20269777919
100.203511616883
100.204540426759
100.202065465045
100.201488812411
100.202000988187
100.20208671959
100.20207868986
100.201568461165
100.201843158797
100.202615804823
100.202609200793
100.201833430991
100.201550202248
100.202076396308
100.201997546704
100.202060143872
100.204552739864
100.203509317305
100.202692327043
100.202356434277
100.204224336589
100.203225739158
100.20203342501
100.201070905941
100.203009556093
100.202208004653
100.200970080272
100.201763623593
100.201539423988
100.202533600746
100.20098262232
100.200588287461
100.202811954284
100.203116215651
100.203339246923
100.202959299033
100.20403861704
100.202218317845
100.201763982282
100.203972956225
100.205021363945
100.205148967952
100.20400753321
100.204855337527
100.201415778805
100.202532431728
100.204516288336
100.203748772205
100.205362789182
100.204576989899
100.205609394716
100.204728045076
100.201294472236
100.202066879562
100.201509542721
100.199731489609
100.193535993358
100.193941829854
100.188048998628
100.191457307099
100.178581273832
100.172501947193
100.176037095948
100.182161064229
100.162448234313
100.236007502255
100.25852001215
100.222127314541
100.250856158394
100.270192691531
100.278160732685
100.283794621407
100.283739040194
100.279031325472
100.27226502863
100.279744653769
100.283734178274
100.286499973235
100.288717784705
100.286735604229
100.289855705986
100.291423152011
100.292872750851
100.293895719706
100.293783713204
100.292267852514
100.290914948438
100.290561766308
100.292057285157
100.293324531898
100.293925527961
100.294859647239
100.2929960677
100.294400579442
100.292815863422
100.292117967251
100.292014531538
100.292146547114
100.292616372911
100.291505640675
100.291320388776
100.291512351994
100.292606569293
100.290769598124
100.293868055631
100.293698976851
100.294377236703
100.29541213643
100.297290168174
100.296619230487
100.295683895558
100.294808073858
100.293783191955
100.292775386315
100.292001449107
100.290902470132
100.293075810933
100.292094577469
100.291827677992
100.292543807811
100.292124089641
100.292757398439
100.292030384776
100.29625480428
100.296915703273
100.297306724383
100.296944756444
100.296426050781
100.296604588708
100.298727231682
100.300472359068
100.299094233575
100.298558163187
100.299040086934
100.294956264176
100.294561667699
100.295835404197
100.297433067203
100.296773523225
100.299321499147
100.297400700254
100.297776943403
100.298253899552
100.297498896654
100.296845610202
100.296110430152
100.295904175043
100.296296021814
100.29545338241
100.294348428048
100.293250925878
100.292456129325
100.292802528363
100.291734007322
100.290686868796
100.291610540298
100.290241807656
100.290416339623
100.290754243175
100.292052233798
100.293933945785
100.294037625593
100.292601938728
100.293188104435
100.292661283344
100.295693293238
100.293481987873
100.293604082679
100.294319388911
100.29553429852
100.297666695003
100.295291871068
100.297108748091
100.298063151158
100.299951842469
100.300659746878
100.301695105205
100.300724143248
100.300142910282
100.300183258528
100.301559036287
100.301149325088
100.300099032262
100.300191538145
100.29795713414
100.299377544406
100.298277962919
100.297341880883
100.298898763908
100.298215434869
100.298588107826
100.298163581
100.298264509731
100.297993252526
100.299873236631
100.300354475404
100.301219236658
100.301689511034
100.301760136848
100.301834700019
100.301598027073
100.301634094452
100.301109927656
100.300722825567
100.30014322442
100.299412479302
100.298508522058
100.297395429943
100.296402596547
100.295650000558
100.295298079208
100.296246743173
100.297795841089
100.299740664446
100.300804593469
100.300765434544
100.300760751773
100.301106539828
100.301084072528
100.30108741384
100.301113462241
100.301170003974
100.301152430624
100.301259144644
100.301267218899
100.301355918573
100.301318718144
100.301243347979
100.300941661092
100.300591430451
100.29988985019
100.299152183284
100.298024654527
100.296908223359
100.294881128117
100.29265504304
100.289571748742
100.285688560236
100.280539207456
100.26085928373
100.255056998251
100.225833583092
100.164436383479
100.183041072312
100.189057854193
100.192730466089
100.192329164302
100.198983753314
100.201035145089
100.196788221316
100.205604318189
100.201012217711
100.201391808438
100.208664376693
100.202261970266
100.201199072877
100.209152240088
100.204787199806
100.198310022363
100.207355105995
100.204003432113
100.19694662222
100.205601006212
100.202526846025
100.194957636276
100.205910861826
100.205176363145
100.205590363453
100.205694387302
100.204598499285
100.207155128416
100.201503216888
100.203973551315
100.201969927259
100.203947054038
100.200083343294
100.200978989735
100.202204079391
100.203315402272
100.20401252992
100.203134425266
100.202438734413
100.201061181805