/*--------------------------------*- C++ -*----------------------------------*\
| =========                 |                                                 |
| \\      /  F ield         | OpenFOAM: The Open Source CFD Toolbox           |
|  \\    /   O peration     | Version:  v1612+                                |
|   \\  /    A nd           | Web:      www.OpenFOAM.com                      |
|    \\/     M anipulation  |                                                 |
\*---------------------------------------------------------------------------*/
FoamFile
{
    version     2.0;
    format      ascii;
    class       volScalarField;
    location    "1.4";
    object      p;
}
// * * * * * * * * * * * * * * * * * * * * * * * * * * * * * * * * * * * * * //

dimensions      [0 2 -2 0 0 0 0];

internalField   nonuniform List<scalar> 
80571
(
100.260714041476
100.260297160461
100.259756707057
100.262647187826
100.267106442921
100.267133911751
100.267530360623
100.268228715733
100.266057081622
100.266111807448
100.266303251474
100.266186172962
100.266296275775
100.266472541075
100.266224600199
100.266078624755
100.268242675891
100.267516690805
100.267117490867
100.267093307858
100.267800500766
100.26834645215
100.266069355247
100.266382823243
100.266642576836
100.265954910025
100.265955116168
100.266643510278
100.266384060538
100.266071193627
100.268352506973
100.267805952567
100.267097322135
100.267120844872
100.267519033856
100.268244063771
100.266083719684
100.266229559203
100.266475340016
100.266301085777
100.26619142376
100.266308277357
100.266118709166
100.266063437853
100.268230920832
100.267532613674
100.267137061761
100.267110636506
100.267820671112
100.26837028188
100.266081359388
100.266395634821
100.266658454825
100.265970399464
100.265970610563
100.266658793106
100.266395212171
100.266079713321
100.26836486644
100.267815512149
100.263062096895
100.263332955246
100.262686854635
100.262393265819
100.262755437679
100.263029867104
100.263030101287
100.262755740974
100.262393091809
100.262687964556
100.263335803849
100.263064527981
100.262650731157
100.263031421066
100.263750216446
100.264148607411
100.264200575964
100.264329499597
100.26395414277
100.264327150155
100.264389968328
100.263982925488
100.264293001709
100.264187825194
100.264150367986
100.263741990322
100.263035367629
100.26263908598
100.263055130028
100.263322437778
100.262675014447
100.262379902092
100.262741328472
100.263015852208
100.263015779055
100.262741160719
100.262379206029
100.26267374471
100.263320675568
100.263053400851
100.262635660986
100.263032168027
100.263738245351
100.264147055092
100.264183072706
100.264285832762
100.263977002665
100.264383690363
100.264320791368
100.263948670159
100.264322779306
100.264195859337
100.26414537109
100.263746207392
100.263027819215
100.260257273773
100.261283697185
100.259604483349
100.260249805171
100.260568419466
100.260311298328
100.260867103295
100.258973778808
100.258948089791
100.259969529569
100.259969983531
100.25894750107
100.258972296232
100.260867711935
100.260315986662
100.260391158392
100.259760258683
100.26025979176
100.261287665188
100.261453949641
100.262692598266
100.262903933892
100.261793346311
100.261694003476
100.26164391226
100.261700276703
100.26282106626
100.262653357459
100.261441727991
100.261278895792
100.260255733329
100.259754036979
100.260378827164
100.260300599852
100.260853764211
100.258958881578
100.258933579937
100.259956014666
100.259955867442
100.258933180795
100.258958466838
100.260852697939
100.260298219726
100.26037714804
100.25975037815
100.260253293482
100.261274890053
100.261439239919
100.262648645213
100.262809566183
100.261691301478
100.26163719555
100.261687486448
100.261783446772
100.262891691213
100.262687666192
100.261453165782
100.259592974377
100.251534304079
100.251867165224
100.251921932402
100.252116667387
100.252382772215
100.261268649549
100.259943856161
100.260111455204
100.260111109373
100.259942235162
100.26127104026
100.260571384833
100.260247714877
100.260299636168
100.259610391809
100.259592153001
100.259712695089
100.264099753988
100.261356795621
100.261286350404
100.264012125533
100.259705582441
100.259589794859
100.259618323357
100.260218509908
100.260291786888
100.260710728426
100.261556142567
100.262297953613
100.262167635534
100.26270554242
100.264948873626
100.264980423423
100.26356975685
100.262176608146
100.261188926967
100.260576100327
100.260290810836
100.260290411812
100.260574897258
100.261186924606
100.262173840705
100.263566472729
100.265416117875
100.265641050696
100.264134209525
100.262484600352
100.261270714766
100.26043072241
100.259927626134
100.259679736097
100.259680142336
100.259928885612
100.260432785689
100.261273534681
100.262488081209
100.264138379388
100.265643974192
100.265418989998
100.263475669692
100.2637821439
100.263600176767
100.263139064821
100.262912579211
100.262340822331
100.263121677676
100.262855673919
100.261348097812
100.258282721243
100.25296124167
100.251545834423
100.25186548605
100.251929709312
100.252119557312
100.25237551828
100.252374327672
100.252116134412
100.251923961332
100.251858450459
100.251538029135
100.251607496024
100.251596861416
100.250425388769
100.250292385099
100.250368816439
100.250232437849
100.250303106614
100.250366830698
100.250368376462
100.252384273418
100.252119890778
100.251927163378
100.251874081271
100.251541675868
100.251602795155
100.251613741264
100.25043590618
100.250294090633
100.250363759277
100.250238800357
100.250301394406
100.250356929557
100.250355232593
100.250296537426
100.250230701212
100.250354535048
100.250282077588
100.250424411736
100.250864706735
100.250871983755
100.250756035425
100.250799979219
100.25068367635
100.250725626697
100.250725754939
100.250727485975
100.250732652339
100.250307690819
100.250240126313
100.250377786204
100.250304010301
100.250436722152
100.250890164825
100.250883213143
100.250759426616
100.250797966439
100.250676378649
100.25071023837
100.250704561357
100.250702451123
100.250702606377
100.25066457497
100.250782648844
100.250740974824
100.250483539167
100.250536023849
100.250542951877
100.250503733282
100.250579569333
100.250526553357
100.250547606827
100.25053969937
100.250543214392
100.25055802147
100.25054268472
100.250694494116
100.250814505918
100.250773681601
100.250529196513
100.250570501226
100.250564199541
100.250510496229
100.250576547925
100.25050932909
100.250519582483
100.250501869862
100.250497590316
100.250507852794
100.250491167611
100.250553236409
100.24952224714
100.24945705648
100.24950630479
100.249516400183
100.24948775052
100.249564395588
100.249542663715
100.249563170142
100.249578631984
100.249584584167
100.249578720606
100.249567851381
100.249597799745
100.250601222116
100.250766969149
100.249713483172
100.249526794376
100.249559249929
100.249550321516
100.249498769702
100.249559166747
100.249513006857
100.249516833487
100.249518839088
100.249511156282
100.249499111925
100.249483872131
100.248236173827
100.248273461039
100.248225430315
100.248299620399
100.248316564376
100.248278799376
100.248339688127
100.248329463601
100.248341587004
100.248382048687
100.248391215278
100.248367704171
100.248367614329
100.248391370219
100.248339730795
100.248384072563
100.248369287918
100.248291238154
100.248332091539
100.248283122423
100.248270369768
100.248287089365
100.248274886132
100.248241411166
100.246869941245
100.246910023022
100.24694417296
100.246890214761
100.247006638323
100.247032224744
100.246976337421
100.24705931069
100.247054918148
100.247029218928
100.247107442433
100.24712122547
100.247068871963
100.247114867553
100.247138592204
100.24707115085
100.24713859352
100.247116836405
100.246993842441
100.247036515394
100.246984285265
100.246918467844
100.246956314171
100.246936437621
100.245277606965
100.245103763341
100.245237653586
100.245274212369
100.245168489039
100.245397128982
100.245435367328
100.245304628377
100.245468096979
100.245470580301
100.24535693064
100.245540435809
100.245561764422
100.245418700686
100.245561682861
100.245588516156
100.2454491353
100.245600637358
100.24556723277
100.245329141604
100.245419707201
100.24535679081
100.245187685163
100.245307992066
100.242925617076
100.242876554954
100.242413821139
100.24274151842
100.242789600978
100.242542630957
100.243064191567
100.243127324622
100.242758785937
100.243091754762
100.24310141811
100.242802814638
100.243277916697
100.243307467508
100.242893381788
100.243237061017
100.243273900201
100.24298183018
100.24337744875
100.243320756978
100.242792989621
100.243014635441
100.242921932823
100.242550238617
100.237533091276
100.238691479734
100.238609794881
100.23730516863
100.238181863572
100.238240713548
100.237553134501
100.238948662842
100.23905522606
100.237905087438
100.238740835971
100.238762285079
100.237948612659
100.239242898289
100.239283764191
100.238077862465
100.238962150907
100.239014294526
100.238264865717
100.239454329928
100.239350973265
100.237951224655
100.238612410974
100.238486518192
100.231824019601
100.229745307519
100.232476271023
100.232341515204
100.229367501884
100.231326254542
100.231406459364
100.22990268477
100.232986436513
100.233125332833
100.230398341727
100.232249345075
100.23227398257
100.230408834814
100.233303225837
100.233349400171
100.230566844854
100.232579546439
100.232672297542
100.230977723065
100.233742389654
100.233563533316
100.230473850375
100.232015344063
100.2409444332
100.240713137699
100.238712514248
100.240855692614
100.240630610834
100.238151860288
100.239925959656
100.239940282511
100.238610122979
100.241298242392
100.24193593993
100.239660332038
100.241388008822
100.241352295583
100.239815850963
100.241970416698
100.241980757798
100.239667703867
100.24184088355
100.241950193581
100.240701677001
100.242876031013
100.242505589024
100.239858445019
100.276863513083
100.271090570021
100.271039807092
100.275676546364
100.271214430073
100.271016055602
100.274989692002
100.270078477761
100.269870022547
100.27531456239
100.271943785323
100.272728290032
100.277212337082
100.271697857553
100.271973714843
100.27681895145
100.272533799198
100.272641637666
100.27714173806
100.272475059719
100.272392224275
100.278157633421
100.27381037228
100.273283122749
100.311652026649
100.328246289491
100.316668903319
100.32651076783
100.308855763791
100.325174844968
100.314476776012
100.325936242237
100.308421765927
100.308171974025
100.325412443899
100.313630197421
100.323715296066
100.32460929612
100.314859332807
100.326489165386
100.343851835697
100.344900115996
100.328512944658
100.311225940624
100.310078961624
100.357201369046
100.386340580899
100.373653474503
100.375395304675
100.385798202258
100.374644949898
100.362372858591
100.317571157394
100.328095688254
100.326449480434
100.310029194239
100.364904267383
100.386055979422
100.367293495153
100.366050196646
100.372125637628
100.380388279848
100.358540034238
100.315568581214
100.327153322822
100.343170114439
100.309754264438
100.309901409664
100.327441260763
100.316006312138
100.32703792163
100.310666982399
100.328789534209
100.318501697296
100.329604033087
100.312448307172
100.346238303668
100.345543377737
100.375492605213
100.383440455968
100.360694811011
100.372735565627
100.365311262287
100.364754593314
100.371015715672
100.357630022211
100.38003857859
100.370572483095
100.370389506394
100.379436712018
100.369896017692
100.363191528994
100.363349362005
100.370633800317
100.381178138786
100.398358196612
100.401850788573
100.408055261399
100.408324037764
100.404802012143
100.39643173887
100.394433096698
100.40952568184
100.415257746799
100.413925238181
100.414137138477
100.414529739273
100.414119636929
100.41347953371
100.403146290329
100.407626796066
100.404252338482
100.394995371757
100.414967910798
100.415434859433
100.415470701033
100.411966095551
100.411903115423
100.410949308261
100.401796393103
100.392290563808
100.404117216811
100.411167636713
100.412769789474
100.415700020281
100.416245623196
100.416185723939
100.416780581627
100.417122819125
100.417182177273
100.41721970957
100.417256701162
100.417288806989
100.417337607932
100.417398894918
100.417448225143
100.41748378401
100.417506314155
100.417552438597
100.417734220974
100.418233889865
100.419456808862
100.421964340828
100.427495106218
100.436090930604
100.452611060823
100.445096284498
100.399704353916
100.356562583246
100.310963365649
100.286479365115
100.301480638854
100.302241175531
100.300092021674
100.299863199189
100.300778744118
100.30186820058
100.30302881478
100.304400884211
100.305933263222
100.30740919857
100.30860585519
100.309407453283
100.309771228255
100.309093350852
100.308218296911
100.307161660871
100.305901466266
100.304359946273
100.302568760317
100.300732682474
100.299072399839
100.297752293187
100.296780420346
100.296126855865
100.295678950093
100.295360339865
100.295126720259
100.294961785623
100.294892418766
100.294964125288
100.295290182211
100.29595331779
100.297129676516
100.298888595999
100.30053226341
100.301060647789
100.301152737798
100.301145495253
100.301180262433
100.301167823902
100.301193201238
100.301228819942
100.301201090552
100.301204035831
100.301160525666
100.301033395803
100.300860858699
100.300935666118
100.301061591298
100.301224454732
100.301194588953
100.301084266701
100.301177477659
100.301212009899
100.301210198766
100.301205273844
100.301229567739
100.30123778428
100.301183588608
100.301193426568
100.3011787443
100.301162470692
100.301164001869
100.301029403989
100.300816641273
100.301114972359
100.301177489567
100.301180514773
100.30119765252
100.301196101031
100.301249550038
100.30122097249
100.301218718943
100.30122728476
100.301210414968
100.301279918123
100.301219690543
100.301311732873
100.301393367022
100.301376171102
100.301335130117
100.301245904122
100.301234596563
100.301249006805
100.301263533576
100.301221392464
100.301226078806
100.301208446255
100.301212067489
100.301087774086
100.301048162403
100.301241649961
100.301260434512
100.301250675944
100.301260048141
100.30125447678
100.301279940206
100.301292860399
100.301284410091
100.301298210795
100.301309456691
100.301419057721
100.301487327408
100.301479448735
100.301407585178
100.301259507049
100.301472181067
100.301516676083
100.301654322012
100.301758158212
100.301720922889
100.301577116171
100.301544857703
100.301475721295
100.301342141021
100.301357261545
100.301324414775
100.30129284022
100.301284997473
100.301284916016
100.301300868676
100.301269091954
100.301299562147
100.301071228442
100.300805570449
100.301207712992
100.301307365363
100.30131245157
100.30133027242
100.301346845166
100.301337697217
100.301362704966
100.301379334304
100.30140042111
100.301426040254
100.301397858869
100.301540378641
100.301621462155
100.301738282363
100.301714869466
100.301758471804
100.301684072041
100.301648930652
100.301527377958
100.301510840145
100.301464617592
100.301454238483
100.301403126766
100.30135363724
100.301388133918
100.301392310981
100.301360058345
100.301374246698
100.301183225795
100.301180719156
100.301374346417
100.301436190331
100.301422469282
100.301440087955
100.301434320873
100.301488109069
100.301521518997
100.30155231473
100.301573337501
100.301737104021
100.301848264681
100.301923535606
100.301939480955
100.301818363328
100.301986075355
100.301988554078
100.30208359107
100.302166565439
100.302112305499
100.302011037534
100.301884230702
100.301764388798
100.301602812383
100.301594768163
100.301608010532
100.301557368581
100.301596788321
100.301511638555
100.301483053911
100.301512090269
100.301353506054
100.301454484903
100.301565311791
100.301586668113
100.301542504898
100.301606940234
100.301614688567
100.301636174593
100.301617443206
100.301671269286
100.301657700414
100.301829938188
100.301960064149
100.302101637049
100.302122580717
100.302131261701
100.301981541214
100.301945573338
100.301768721333
100.3017310235
100.301668234646
100.301675690999
100.30165079692
100.301664634617
100.301684776458
100.301642309701
100.30160328232
100.301672067418
100.301409847328
100.301527562426
100.301632039378
100.301701783544
100.301664731007
100.301701816786
100.301722067356
100.301757189089
100.301725753838
100.301786160583
100.301755844801
100.301820511977
100.302074376066
100.302240311339
100.302349204617
100.302344671252
100.302423974691
100.302495781979
100.302445127318
100.302292710615
100.302119541963
100.301907262715
100.30188103683
100.301779371056
100.301777140805
100.301823441079
100.301749542847
100.301771422777
100.301821141812
100.301764047763
100.301816138924
100.301756906606
100.301567514197
100.301769462493
100.301768340257
100.301797632793
100.301861433831
100.301822760412
100.301935974724
100.301861180488
100.301954505201
100.301925929488
100.301964859902
100.302078210006
100.302260079084
100.302439628196
100.302456350467
100.302427273285
100.302266910184
100.302331914105
100.302511616745
100.30265535805
100.302590066138
100.302707318317
100.302600854113
100.302620191708
100.302611714745
100.302429247145
100.302209987244
100.302057950749
100.302016090927
100.30193321822
100.301916276499
100.301961875419
100.301901371428
100.301910215081
100.301918101717
100.301901073573
100.301866444448
100.301902421646
100.301892574271
100.301575599802
100.301919906675
100.301815804615
100.301738514867
100.301948604246
100.301910173498
100.301947492176
100.30197677292
100.301946538421
100.302003334827
100.301990264124
100.302121782262
100.30221657476
100.302249286395
100.302509011098
100.302699965729
100.302885570876
100.302823738905
100.302955321579
100.302889479339
100.302896081827
100.302864527034
100.302643561973
100.302395484074
100.30230150438
100.302140916484
100.302114303652
100.302137620875
100.302030664175
100.302087343554
100.302003747538
100.301967995213
100.302011777854
100.301936897473
100.30192998489
100.302023194609
100.301648618551
100.300839152292
100.301605654095
100.30100395135
100.300146719304
100.301084744327
100.300460579462
100.299681116008
100.298781449926
100.300175532734
100.299575943957
100.29787571138
100.296446931919
100.295513865432
100.295003795265
100.294808289209
100.294802389856
100.294928806742
100.29514582837
100.295451931586
100.295878280153
100.296494173675
100.297388938439
100.298600688736
100.300141833306
100.3018710751
100.303591544949
100.305119007487
100.306396724244
100.307476993312
100.308384203635
100.309097874402
100.309652077202
100.310290303364
100.310719463775
100.310228652258
100.309576258
100.30872001207
100.307662481792
100.306389188403
100.304828202544
100.303007008254
100.301132164661
100.299416470805
100.298028822304
100.297001982774
100.296313310937
100.295849171597
100.295523742462
100.295288808411
100.29511507952
100.295011255854
100.295022276497
100.295226241369
100.295705386946
100.296628832909
100.298216847951
100.300112323617
100.300965525685
100.301157197068
100.301149299547
100.301172109657
100.301178622686
100.301198369929
100.301224127452
100.301214214052
100.301226618705
100.301169278231
100.301014826467
100.300758979579
100.300824637341
100.300533424894
100.300066936215
100.299385973483
100.299664311705
100.299998077111
100.300478494167
100.300429012043
100.300192315727
100.300606490104
100.30073744538
100.300909663311
100.300651484684
100.300879436184
100.301044972829
100.300674100701
100.300216658846
100.300587723685
100.300818633812
100.30111114667
100.30148873288
100.301414783513
100.301207527468
100.300953772375
100.300887906358
100.301040801026
100.301223871449
100.301227105194
100.301252233491
100.301138293889
100.301292443023
100.301246238654
100.30121805447
100.301153114654
100.301115252662
100.301092841819
100.301094373644
100.3011064355
100.30114614263
100.301171763172
100.301168876629
100.30119165426
100.301220095107
100.301201983963
100.301207767535
100.301155408046
100.3010180276
100.30095319085
100.301098419067
100.301204062494
100.301195012209
100.301225673125
100.301228160579
100.301230978719
100.301191353682
100.301233299564
100.301208465147
100.301232607027
100.301177725807
100.301041890747
100.300776944591
100.300372888012
100.300762923845
100.300438631316
100.299993628461
100.299248748458
100.298282239833
100.297162535553
100.29554570414
100.296950482488
100.297317856674
100.29793221241
100.298512656961
100.298909015711
100.299251470024
100.299948025074
100.300002424146
100.299766494486
100.299265136392
100.298785814034
100.298352404405
100.298130290772
100.298989400048
100.29947412334
100.300106020978
100.300356029568
100.300904539715
100.301099985965
100.301209823974
100.301220163804
100.301118059593
100.301125086765
100.301144433167
100.3011719589
100.301186170305
100.301224440564
100.301202669817
100.301283678042
100.301272318206
100.301347691712
100.301305683574
100.301200361289
100.300939725334
100.300568391699
100.299948362434
100.299212355402
100.299138439687
100.298114579682
100.296920543737
100.29512247846
100.293096641899
100.290251954351
100.291247093485
100.292634764389
100.293719950216
100.294658933691
100.296063872144
100.296231422586
100.295523506469
100.294847524704
100.293732235428
100.293265103059
100.295114639348
100.296457751881
100.296824798704
100.298277678498
100.299919321825
100.300582512952
100.300773974786
100.300887205079
100.301155243599
100.301186783448
100.301166052552
100.301186097963
100.301201048159
100.301260546563
100.301217819303
100.301377705229
100.301374613627
100.301472649695
100.301454749864
100.301358424914
100.301086940866
100.300726893103
100.300014533433
100.299336499637
100.298174088597
100.297039037945
100.294965447466
100.294906010754
100.292655937858
100.289508674582
100.285560802458
100.280350440609
100.260617667795
100.270694796952
100.281458899087
100.282567202346
100.286881158079
100.288156941521
100.283306685527
100.287061484049
100.289441103719
100.29126242293
100.292899759874
100.293876223081
100.295107230639
100.295207457011
100.294410842475
100.292929025941
100.291498472426
100.290032013424
100.289747406617
100.292147652548
100.294226506747
100.295160618885
100.297171288978
100.29840485448
100.300411693657
100.300850254414
100.300887653348
100.300969273609
100.301144793753
100.30111851806
100.30112460946
100.301121012662
100.301117821136
100.301116338631
100.301191302363
100.301182985041
100.301181011877
100.301199187352
100.301259948374
100.301216289483
100.301378135601
100.301376981689
100.301480643403
100.301464066465
100.301385574026
100.301085967003
100.300766798509
100.299998926699
100.299347082501
100.298175571597
100.297029837578
100.294953138057
100.292441933536
100.289224875136
100.28917850525
100.284698685837
100.279321738069
100.254718476159
100.225641249326
100.164999151718
100.183292668434
100.189182570748
100.192889656213
100.192462644652
100.199237780667
100.196495505559
100.192977061304
100.198350187056
100.202890631456
100.201047736203
100.19676088536
100.205563713731
100.200999608191
100.201392091159
100.208734154856
100.202248770555
100.201184340523
100.209169734301
100.204770086168
100.19830367505
100.207389398417
100.203989377991
100.196962420401
100.205623051529
100.202517955511
100.194973277364
100.205755316102
100.207130581555
100.204577818921
100.203835040261
100.201850113716
100.200332455149
100.19986407312
100.199989234065
100.19993785494
100.200309339836
100.200597352939
100.200607490861
100.200264030135
100.200485065922
100.20064654136
100.200718776345
100.200513398919
100.200374222357
100.200773709113
100.200470975043
100.200319809135
100.200258888843
100.200496812533
100.200601571693
100.199888825774
100.199897519916
100.200559829579
100.200466042822
100.200222113588
100.200331687831
100.200476307914
100.200780238705
100.200374365321
100.200514728073
100.200719249255
100.200647343081
100.200486921219
100.200267028163
100.200610306479
100.200601326126
100.200312772426
100.199939368084
100.19998642741
100.199864775816
100.200336695129
100.201311227432
100.202330161964
100.202347192998
100.201302654937
100.201783263167
100.202713267816
100.202727836271
100.201802230348
100.201861496607
100.201692213576
100.201271508974
100.201880270434
100.20208580966
100.200735363488
100.201240344357
100.200977806377
100.201146383639
100.201591036018
100.200681821019
100.201332050948
100.201859541967
100.201978519096
100.202561167582
100.200764864233
100.201737674015
100.201129677444
100.201032806763
100.200603242049
100.201170932483
100.202993872919
100.201664072393
100.20037442096
100.201597382336
100.201579943689
100.200350869612
100.201151957138
100.200599780537
100.201026895809
100.20113779732
100.201736882037
100.200756722528
100.20256577624
100.20197479279
100.201853802724
100.201329287991
100.200676022697
100.201588320925
100.201143927142
100.200972821338
100.201235896269
100.200727761102
100.202083046705
100.201879897307
100.201270127477
100.201683576759
100.203687834378
100.203119927784
100.203965353969
100.20150994215
100.200079774754
100.203943577204
100.203138876968
100.202569982401
100.203227383597
100.201964874932
100.202867408084
100.200251883531
100.205937481491
100.205203360891
100.205545720402
100.202009900853
100.201174333756
100.201164921192
100.202000989133
100.203830938887
100.203699926605
100.203130776226
100.203238947322
100.202580202223
100.203142759792
100.202991705999
100.20107072989
100.202014919314
100.203192608458
100.204198347881
100.202366855045
100.202697379146
100.203504137286
100.204524553271
100.202058625425
100.201487894278
100.201999773889
100.202081909642
100.202076321338
100.201563643138
100.2018517094
100.202623771889
100.202617964375
100.201841547599
100.201544871408
100.20207030124
100.201996183049
100.202051518279
100.204533276389
100.203500425698
100.20269216648
100.202356488122
100.204205844642
100.20320585033
100.20202022585
100.20106742014
100.20300136165
100.202195104131
100.20097829406
100.201766925557
100.201529393491
100.202531441679
100.200977721557
100.200571738541
100.202805050628
100.203135309352
100.203315614357
100.202931505836
100.20401646245
100.202190307122
100.201722356207
100.203969961226
100.205049616128
100.205107705166
100.203949046962
100.204803262484
100.201357120908
100.202438584996
100.204479491215
100.203710362246
100.20536615021
100.204542143684
100.205501623654
100.204620773894
100.201105456557
100.202045347564
100.201426201442
100.199493047815
100.193037982124
100.193688516207
100.18775734776
100.191288795714
100.178552805799
100.172934022964
100.176585774301
100.182299995344
100.162617602577
100.236087314111
100.25841588744
100.222414696672
100.250709170312
100.270099480364
100.278117456415
100.283787229479
100.283693731072
100.278874535795
100.271971838244
100.279661620504
100.283677040369
100.28647757684
100.288757007076
100.286824517609
100.289979048064
100.291566593788
100.293025160684
100.29403514846
100.293906944703
100.292384788454
100.291006984624
100.290698178455
100.29214726521
100.293416021319
100.294031931835
100.294924120647
100.293000741184
100.294503339964
100.293171953144
100.292363348029
100.292115682473
100.292057220715
100.292568137987
100.291559437811
100.291460069269
100.291833044641
100.29271863056
100.290922827318
100.293750166213
100.294117568406
100.294754867692
100.295686297687
100.297501740168
100.296798505813
100.295847742453
100.295026484452
100.294051260541
100.293062471425
100.292221962273
100.291083041203
100.29324709901
100.292182787822
100.291804243943
100.292338482672
100.291700353917
100.292520943322
100.291795533832
100.2957928925
100.296495140475
100.297120016098
100.296869570885
100.296541883578
100.2967392211
100.298761839927
100.300639013861
100.29933451341
100.298738894364
100.299236177766
100.295134462248
100.294688417798
100.295861602479
100.297524663872
100.296757837277
100.299373709179
100.297450479252
100.297832885242
100.298329099101
100.297628276923
100.296941793573
100.296226133534
100.296022633087
100.296452056968
100.295637250138
100.29456930899
100.293522146153
100.292617412402
100.292941573549
100.291870155561
100.290815175111
100.29179013121
100.290394995508
100.290565702705
100.290811005243
100.291947353199
100.293875565155
100.293731414509
100.29220968396
100.292980900534
100.292404201723
100.295288773464
100.293927173133
100.293857252811
100.294278020487
100.295293787914
100.297413168423
100.295073776578
100.296975469067
100.298118316874
100.300171915
100.300867552179
100.301821346931
100.300838677974
100.300249554935
100.300249841464
100.301657430127
100.301209993846
100.300136464627
100.300236479071
100.297981575521
100.299434725152
100.29829153855
100.29734019929
100.298886319678
100.298223573895
100.298611052735
100.298186464529
100.298291542015
100.297981933768
100.299903376962
100.300407784731
100.301281938731
100.301769715906
100.301850345528
100.301913800246
100.301681973387
100.301711781067
100.301196698478
100.300803926215
100.300194618746
100.299354314012
100.298373293078
100.297210071925
100.296333090694
100.295804682977
100.295641026235
100.296393508787
100.29779248317
100.299610333692
100.30083819808
100.300801300826
100.300799280864
100.30118958066
100.30118069796
100.301159546002
100.301180023123
100.301221069572
100.301199340577
100.301287762117
100.301278130262
100.301361585554
100.301321479057
100.301236338217
100.300948309491
100.300619127206
100.299929990139
100.299220225595
100.29805479873
100.296906760034
100.294894811339
100.292614818507
100.289555984959
100.285664146368
100.280608650508
100.260967361054
100.255040824568
100.225918130092
100.164554276928
100.183110927808
100.189082584144
100.192829153217
100.192433166009
100.199101660195
100.200990382865
100.196770050812
100.205645345326
100.200977891208
100.201401567715
100.208704811422
100.202257062225
100.201189457077
100.209152311462
100.204765919634
100.198315219585
100.207355560812
100.203993868427
100.196957486414
100.205614689223
100.202525015343
100.194967870155
100.205927539159
100.205184528976
100.205594275126
100.205699503242
100.204601660856
100.207160635232
100.201504364135
100.203973699882
100.201953835378
100.203947260233
100.200081733613
100.200984050251
100.202192397865
100.203293903782
100.203997809413
100.203132705781
100.202433892694
100.201075717442
100.201428035239