/*--------------------------------*- C++ -*----------------------------------*\
| =========                 |                                                 |
| \\      /  F ield         | OpenFOAM: The Open Source CFD Toolbox           |
|  \\    /   O peration     | Version:  v1612+                                |
|   \\  /    A nd           | Web:      www.OpenFOAM.com                      |
|    \\/     M anipulation  |                                                 |
\*---------------------------------------------------------------------------*/
FoamFile
{
    version     2.0;
    format      ascii;
    class       volScalarField;
    location    "1.6";
    object      p;
}
// * * * * * * * * * * * * * * * * * * * * * * * * * * * * * * * * * * * * * //

dimensions      [0 2 -2 0 0 0 0];

internalField   nonuniform List<scalar> 
80683
(
100.067784426031
100.069753654136
100.066593499712
100.070919853803
100.077946317099
100.078082182815
100.076134842512
100.076685111741
100.076669755844
100.077049391236
100.077546469914
100.077315062239
100.079039817154
100.078654979734
100.08119548775
100.081197152215
100.077768503538
100.072954282204
100.071868415943
100.071820044789
100.072824211284
100.072680571593
100.071897801998
100.073338183194
100.079785611551
100.07983573263
100.074122119351
100.072316257939
100.072211310134
100.071498731814
100.071367285845
100.072353050039
100.072303655158
100.074054105489
100.079602812892
100.079433338022
100.073235940782
100.071854584396
100.072587142475
100.07254060354
100.071658235572
100.07170774789
100.07283092937
100.077569532749
100.080840627627
100.080691418211
100.073748791367
100.073235119491
100.07104159993
100.070523746936
100.070450800104
100.070080343066
100.06954600983
100.068410181756
100.0695016793
100.070652829828
100.070815199061
100.069979278799
100.068945159515
100.067793175277
100.067421261887
100.068011228531
100.06793662142
100.067260446393
100.067813600448
100.068943360727
100.069919568282
100.070901031862
100.070873264564
100.069682194861
100.068583138855
100.069759173374
100.070185285792
100.070515312356
100.07051838683
100.071019512965
100.073456880594
100.074164919495
100.071559075464
100.074714967389
100.077832551434
100.079485337614
100.077328104868
100.077077690603
100.078241454167
100.076236236753
100.073757443054
100.06956197044
100.074863070514
100.062960750712
100.050932789093
100.056652329991
100.057773364442
100.069960267849
100.065860185116
100.067075578538
100.069230810595
100.067235265902
100.065821344269
100.065308228872
100.067882246622
100.069382454502
100.06531818056
100.064377688572
100.066713705929
100.063919515674
100.062800362369
100.063830126069
100.063834063915
100.062850427281
100.063933018771
100.066662702452
100.064333495488
100.06513220509
100.069615369484
100.068404015763
100.065639022948
100.066004511231
100.067333014315
100.069289370184
100.067023786918
100.065730543086
100.070278295906
100.070312108861
100.067314725507
100.070855002945
100.077090756193
100.082489365389
100.075856165766
100.075763254459
100.080044518342
100.095340008164
100.063953673506
100.064494840319
100.048371572804
100.021912768768
100.022825972906
100.018364970658
100.018770352873
100.025154072344
100.055905242048
100.068250827185
100.064358796106
100.064161864581
100.07106067613
100.057339815315
100.058090123001
100.058019628384
100.058211632125
100.067919543899
100.063071306221
100.063059772338
100.067864513467
100.058236216441
100.058057209421
100.058082840745
100.057166242309
100.055999233382
100.058051482908
100.056269299551
100.016769923964
100.019934294742
100.020933839461
100.020784113205
100.019988673542
100.02013010394
100.021586766404
100.022238827779
100.025559167162
100.022675170489
100.023683295368
100.027271774961
100.027273966017
100.023686143481
100.022623087064
100.025304150554
100.024808453958
100.018089900055
100.019802770448
100.026573455385
100.027008092094
100.02588499834
100.025761070455
100.026861351881
100.026741330074
100.02584529294
100.026227138051
100.026524483187
100.021290122006
100.022062126598
100.023260959474
100.02321495637
100.021934278586
100.021052107708
100.021973650687
100.02124091472
100.025576171485
100.02682764837
100.027543286219
100.027792594766
100.026961291846
100.026985960683
100.027900765043
100.027746030242
100.027082824884
100.027337060703
100.027537952348
100.027546800315
100.026806300937
100.026396038
100.026328029468
100.026604683422
100.026133092977
100.025925653374
100.027058913064
100.025251189889
100.025067587555
100.02525095149
100.025408922286
100.024898035424
100.024865239209
100.02543673155
100.02541857701
100.025234787767
100.02548717973
100.025503231765
100.025520376719
100.025389902503
100.027163465897
100.027100833264
100.027385706132
100.027256496133
100.025285970934
100.022961237086
100.022942044666
100.022770227403
100.022745626895
100.022730713263
100.022720808897
100.022651941577
100.022690099225
100.022889954588
100.02289255059
100.023146162789
100.023146849166
100.023232688038
100.023185410155
100.023142115416
100.025343197861
100.025431152306
100.023131216059
100.021276313263
100.021081364963
100.021001677725
100.02080726848
100.0207577723
100.020562064782
100.02101081033
100.021040009251
100.020662512564
100.020939454374
100.020978768464
100.021236985495
100.021285763951
100.021418089563
100.0213862009
100.021332195282
100.019787664354
100.019643286094
100.019371681066
100.019202899637
100.018927819426
100.018869353647
100.018612529876
100.01846757944
100.018607693936
100.018877120031
100.019162573709
100.019275102244
100.019580142428
100.019700250283
100.019883999214
100.019873462155
100.018431665812
100.018273581291
100.017931043394
100.017517818516
100.017191084486
100.016759863773
100.016612517418
100.016463030574
100.015980608836
100.016136284369
100.016783209428
100.017127284832
100.017465542258
100.017892638191
100.018113315569
100.018403065399
100.016827138867
100.016905662553
100.016594487946
100.015922367591
100.015233776209
100.014668944455
100.01399317931
100.013660965306
100.013550638942
100.012717217071
100.012986547257
100.014140814338
100.014603618948
100.015316403195
100.01598757056
100.016367637084
100.014061062118
100.014838785547
100.014986439983
100.014378753405
100.013154923224
100.011899122188
100.011223205277
100.010153315239
100.009175115094
100.009185924202
100.007669087812
100.008122061519
100.010422568707
100.010953866406
100.012429779243
100.013589154451
100.010365676815
100.010169514935
100.011755596271
100.012219728393
100.011029065878
100.008774907055
100.005989406693
100.005885139428
100.004266691155
100.001534460609
100.002636131109
99.99983732175
100.000261594833
100.004488288317
100.004712020054
100.00836227904
99.9971097418964
99.9997513270626
99.9959985101756
99.9993003414657
100.002079329227
99.9998556992488
99.9937420387073
99.9886087826996
99.9922385674569
99.9905171602023
99.9819071908861
99.9854658324296
99.9833622882025
99.9841900960425
99.9888191178956
99.9877139724246
99.9982726540531
100.009268293138
100.012822801151
100.009838051843
100.017400525436
100.01671781253
100.012551789506
100.007644126748
99.9968894946119
99.9999910095059
99.9987432800396
99.9896661283133
99.9839533902021
100.017821890386
100.041372100108
100.042773495761
100.021916053648
99.9871845101519
99.985455942788
100.079536753178
100.161951270779
100.100786669157
100.10282569708
100.092022344153
100.080205648865
100.075362390179
100.073559901426
100.077940635191
100.084732885482
100.099426430127
100.083326191272
100.07738358563
100.082634583514
100.064607396297
100.05865982079
100.058791596971
100.062798293774
100.072373402533
100.086629565199
100.179685145734
100.199296249224
100.201070430856
100.184947069265
100.191228064308
100.189883465665
100.218383888018
100.266428735322
100.170207866368
100.181900726193
100.240815759559
100.203742722138
100.231426269947
100.254492529597
100.188205171298
100.178616538542
100.23465287615
100.206378810667
100.175254575811
100.211019278771
100.154075482237
100.148495674639
100.198679275246
100.17489324915
100.182260659796
100.277315675951
100.323770490693
100.290223497251
100.291131182098
100.326664912447
100.305153834938
100.284285345146
100.392666921117
100.421141254342
100.388365083142
100.410578018779
100.415606892468
100.368267264188
100.310734673523
100.352881894363
100.293983366065
100.403001204763
100.428527899552
100.405172068651
100.419513010354
100.446092903433
100.400543626219
100.338518854371
100.354050591298
100.275846361339
100.313528614458
100.395168130499
100.434577935098
100.450365734134
100.458396035831
100.465735775708
100.470236371114
100.471812280022
100.471889061718
100.471455893341
100.470950339219
100.470595322199
100.47049030224
100.470438414206
100.4703853943
100.470303593388
100.470243589707
100.470291349172
100.470459806872
100.470799946813
100.471368147988
100.472533823538
100.475226833681
100.483272441811
100.498693033814
100.533410742709
100.536319582661
100.479766980148
100.431937376136
100.382595466843
100.35398075753
100.374504290645
100.372313395283
100.370738020677
100.371382108597
100.372377286156
100.373332280944
100.374502478064
100.376045779628
100.37787950064
100.379806575573
100.381569300182
100.382904255807
100.383599758055
100.382579183304
100.381347666182
100.379954387888
100.37845046742
100.376845449819
100.375122236936
100.373326757542
100.371587227522
100.370037608525
100.368742808899
100.367697358358
100.36687438084
100.36624152483
100.365804424382
100.365610218166
100.365719512867
100.366204857275
100.367148390428
100.368521770645
100.370099436109
100.371447420272
100.371972768054
100.371930567981
100.371842250563
100.371995739193
100.372086228865
100.372158906338
100.372209915325
100.37223541888
100.372377497659
100.372467826995
100.372752527426
100.372906881104
100.373040855685
100.373002444849
100.372933679011
100.372831745552
100.372739885075
100.372612189869
100.372634209625
100.372578074269
100.372790529767
100.372898843285
100.372956304112
100.372806599061
100.372646118359
100.372356066387
100.372239009746
100.372116894554
100.372100620673
100.372065253704
100.371991309664
100.371916936048
100.371837980973
100.371806529496
100.371686767404
100.371834382816
100.371895017138
100.371959810647
100.372001011607
100.37202769104
100.372111165541
100.372209685196
100.372507296563
100.372691284514
100.372850033693
100.372692813246
100.372541197764
100.372350938942
100.372065982075
100.372011911172
100.37193365447
100.371892659952
100.371854948618
100.371808097747
100.371758540506
100.371696197477
100.371678116445
100.371555414996
100.371684010011
100.371725643361
100.371765830072
100.371792847029
100.371832755495
100.371916240086
100.371969850349
100.372220051272
100.372394746736
100.372513141721
100.372503851857
100.372395254308
100.372207522477
100.372011413378
100.371946938633
100.371922024571
100.372191393839
100.372360173722
100.372232918894
100.372086612745
100.371849898312
100.371783053086
100.371722814366
100.371706096801
100.371682402818
100.371650262359
100.371613868197
100.371569530982
100.37153120564
100.371438579739
100.371546427488
100.371577044775
100.371588995616
100.371626872677
100.371653309312
100.371688852331
100.371710954843
100.371943673475
100.372080102329
100.371872739059
100.371756313919
100.371587234389
100.371614165622
100.371566662631
100.371535377033
100.371509112654
100.371512608022
100.371477050543
100.371426512431
100.371374598402
100.371320927324
100.371415086387
100.371442032801
100.371447077498
100.37146840449
100.371476886297
100.371505211075
100.371485262398
100.371637638211
100.371697516005
100.371753242535
100.371603208224
100.371557314819
100.371489833864
100.3714513178
100.371424017503
100.371438778872
100.371386008997
100.371431422154
100.371397089213
100.37137379262
100.371365321085
100.371349693552
100.37130152403
100.371208722954
100.371197105703
100.371275805209
100.371260150583
100.371285199427
100.371287275643
100.371321017143
100.371320144393
100.371383899126
100.371343903781
100.371506436642
100.371376143881
100.371324819965
100.371106748731
100.371138240129
100.371086797517
100.371292592597
100.371258260714
100.37130550884
100.371249145114
100.371279678045
100.371298972165
100.371257142825
100.371204971004
100.371247828323
100.371205442461
100.371210820314
100.371120335102
100.371043305817
100.370917023175
100.370586367182
100.370924390827
100.371082388672
100.371103826546
100.371167008674
100.371162421884
100.371187120198
100.37121437549
100.371235179256
100.37122796755
100.371271696335
100.371198759665
100.371131037744
100.371082284892
100.370965552875
100.371158442308
100.370989720566
100.371144013737
100.371223192583
100.371136070976
100.371166710091
100.371162527832
100.371149524547
100.371118626811
100.371124177071
100.371062058432
100.371031349433
100.370875978237
100.37035576061
100.370899227911
100.371029687842
100.371052220185
100.371088913972
100.371089359398
100.371113852717
100.371116622763
100.371122753075
100.371067656877
100.371125447223
100.370986941891
100.370999129387
100.371100520482
100.371146319216
100.371109258107
100.37099759237
100.370971067732
100.370630270994
100.370442515082
100.370783968954
100.370650976058
100.371001309717
100.370754397113
100.371000133616
100.371079495356
100.371049061631
100.371067084762
100.371045882465
100.371056344806
100.371046259448
100.371029992494
100.371030070339
100.37099590718
100.370883910546
100.37033728846
100.370937601801
100.37098669571
100.371020990808
100.371037441201
100.371026735298
100.371074827863
100.371080567234
100.371130386795
100.371112990234
100.371124016152
100.371160431923
100.37121184677
100.371258191442
100.371314348757
100.371258945752
100.37128784142
100.371340304723
100.371396705715
100.3714584639
100.371530255549
100.371601739021
100.37168482679
100.371765919569
100.371861259525
100.37194928724
100.372055529763
100.372187364501
100.372259238147
100.372323807697
100.372334450393
100.372480283706
100.372580155993
100.372861696951
100.373006775455
100.373135326329
100.373136850611
100.373052226467
100.372927089876
100.372650968302
100.372420329049
100.372283412571
100.372155260571
100.37205361104
100.37210783774
100.372200335625
100.372398840252
100.372518954732
100.372810852174
100.372697131883
100.372545380869
100.372335260911
100.372142300294
100.372094017477
100.371943667855
100.37181252183
100.371656956886
100.371518918672
100.371539856304
100.371605246277
100.3718236831
100.372045509566
100.372167931972
100.37227062098
100.372410887144
100.372349366356
100.372201635467
100.371994818577
100.371805911767
100.371768761195
100.371633807746
100.371530818408
100.371432938636
100.371244612016
100.370983613562
100.370689610419
100.3705760951
100.370345805034
100.370451679499
100.370599412312
100.370901279215
100.371189006517
100.370912280265
100.370671436604
100.370500250798
100.370275277789
100.370503586142
100.370499742858
100.370811413156
100.370874441138
100.370762043704
100.370907334207
100.370970172846
100.371179838542
100.371159190926
100.371197806802
100.371200985278
100.371183571895
100.371403894613
100.371443137818
100.37149301994
100.37151696689
100.371572878927
100.37161946775
100.371692207709
100.371757629798
100.371841932598
100.371906912134
100.371998341716
100.372077502933
100.372147085
100.372286339071
100.372363493552
100.372430363924
100.372420153078
100.372593785136
100.372707288511
100.37297976141
100.373094142587
100.373240217452
100.373203288213
100.373207010333
100.37322301695
100.373043314596
100.372819888323
100.372691025352
100.372570538944
100.372248087851
100.371850166817
100.371674753802
100.371551259145
100.371353080604
100.371209055386
100.371071758134
100.370953187175
100.370811637634
100.370713217698
100.370598684869
100.370721275311
100.370909996318
100.371095225999
100.371232321165
100.371367130307
100.371453101058
100.371584078247
100.371700178189
100.371834692341
100.371950792691
100.371778276979
100.372002300846
100.372280425973
100.37225699722
100.372459485429
100.372371786596
100.37221561672
100.37194346083
100.37203783458
100.372165110667
100.372174653532
100.372252994533
100.372393092922
100.372457479425
100.372524565403
100.372526271207
100.372714179783
100.372814527008
100.373067702778
100.373171913646
100.373292892471
100.373278519338
100.373305054327
100.373132181178
100.372947969197
100.372662425203
100.372341188369
100.372005946499
100.37143764505
100.371187544004
100.371018026817
100.370847540896
100.370650293365
100.370482849716
100.370297242827
100.370142678022
100.370020861721
100.370232919758
100.370441941404
100.370669287164
100.371002750157
100.371059276446
100.371267430359
100.371074748533
100.371310013546
100.371502252857
100.371341963345
100.37168499155
100.372005623698
100.372193929431
100.37222452652
100.372152153339
100.372251631296
100.372329576987
100.372491335373
100.372537546069
100.372615370883
100.372625073838
100.372807562266
100.37290397871
100.373141693465
100.373251860692
100.373389785192
100.37337275482
100.373405414688
100.373238000701
100.373081659492
100.372811393404
100.372469915051
100.372168011072
100.371639948093
100.371418977264
100.371105821477
100.370915488345
100.370858276923
100.37062160354
100.370454418779
100.370272418677
100.370103194631
100.369865330106
100.369630265606
100.369416456693
100.369231929075
100.369035285454
100.368775267591
100.368550620367
100.36886671408
100.369165664177
100.369353788866
100.369524838416
100.369707847482
100.369908810165
100.370161857814
100.370378285754
100.370533296131
100.370673773111
100.370894332405
100.370744513635
100.370575762406
100.370145569454
100.370194376073
100.370397690826
100.370367390735
100.370970225473
100.371326138868
100.371768775374
100.372013266785
100.372048079686
100.371994521323
100.372083405288
100.372162267944
100.372013107438
100.37203879213
100.372134727674
100.37218966751
100.372309657981
100.372417818738
100.372601638411
100.372622221429
100.372709978513
100.372716791731
100.372897823357
100.372999375885
100.373226661272
100.37334575591
100.373518755091
100.373435686636
100.373528286436
100.37336222345
100.373197785281
100.37292384115
100.372604908235
100.372295420895
100.371784774223
100.371553531205
100.37113220001
100.371078842665
100.37091606009
100.370961215582
100.370899314526
100.371012593967
100.370826830908
100.370638540821
100.37047919368
100.370299470268
100.370093929889
100.369839708619
100.369596394976
100.369351461392
100.369102504582
100.36877140245
100.368403318824
100.368070641278
100.367798559337
100.36739767488
100.367651923117
100.368027176791
100.36831058157
100.368656602005
100.368915587429
100.36913014099
100.369389523622
100.369641804974
100.369904294765
100.370088515298
100.370263876584
100.370424574638
100.37065695812
100.370623461501
100.370507343168
100.370279137198
100.370159776766
100.369966027448
100.370185709215
100.369874220392
100.36964198036
100.369273361953
100.368867422473
100.368435503781
100.367917309724
100.367249899666
100.366206783819
100.364814541427
100.364066127587
100.364376087015
100.365049449596
100.365666633409
100.36630532765
100.367038289867
100.36762608937
100.368189974922
100.368679266331
100.369101603997
100.369526024085
100.370128036806
100.368405000793
100.367708161447
100.367249213714
100.366799400296
100.366381014096
100.366052173441
100.365637438319
100.365183274325
100.364281761572
100.363473000161
100.360415385162
100.358001475546
100.362114825218
100.361483750649
100.360735391112
100.357322009165
100.357337221981
100.357215282612
100.359810573212
100.36114689169
100.361860809134
100.362997654109
100.363882243277
100.365107562479
100.366109890514
100.366778278342
100.367515971864
100.368098252259
100.368676393129
100.369141902498
100.369550579831
100.369914243596
100.370368748347
100.370115293099
100.370728062461
100.368915910716
100.372254297329
100.3725013175
100.372576396473
100.37277569557
100.372918675738
100.37290002089
100.372525421773
100.371785028012
100.370831919739
100.369435079975
100.367461132242
100.365740023181
100.364229056961
100.365717786108
100.36615927384
100.362390541409
100.360184528648
100.359414059928
100.349404195732
100.352759438265
100.351822124292
100.355287807086
100.357982765066
100.365978054015
100.367777325034
100.37004317126
100.369993921813
100.370235698358
100.370401209613
100.37062616798
100.370944374488
100.371224237734
100.371503675364
100.371766417446
100.370988556246
100.369469367596
100.367875096794
100.366598440382
100.365825456337
100.3655331948
100.365605210324
100.365934001546
100.366451078618
100.367117480143
100.367954609452
100.369017460181
100.370333654146
100.371902338652
100.373657186136
100.375463821537
100.377193724718
100.378804221933
100.380317599491
100.38172655285
100.382984583559
100.384041602384
100.384890857468
100.384400977157
100.383390318576
100.382631457078
100.381658031954
100.380481448477
100.379147980533
100.377712355328
100.376176992714
100.374510950247
100.372763876185
100.371079619726
100.369588904551
100.368353520986
100.36736228269
100.366599858319
100.36605547596
100.365754852132
100.365726135673
100.366019052719
100.366693275125
100.367784823509
100.369208954375
100.370736195575
100.371832668617
100.372121611819
100.3722356504
100.37231283382
100.372312284653
100.372372403375
100.372505458667
100.372678621184
100.372689011691
100.372800494498
100.372824671269
100.373035145086
100.373151869971
100.373328422599
100.373493539457
100.373512992254
100.373596755326
100.373668603509
100.373657508091
100.373504289218
100.373348196703
100.373014954113
100.372762890948
100.372559898726
100.37240516077
100.372073973206
100.371720904935
100.371314003424
100.371205763319
100.371061873302
100.371063025555
100.371178859224
100.371096515108
100.371368054489
100.371250412459
100.371056623021
100.371169261317
100.370950312544
100.370786194931
100.370626397845
100.370407899278
100.370162744121
100.369920598423
100.369649904417
100.369341916942
100.369068381471
100.368592379848
100.368817502533
100.369183570055
100.369492730948
100.369752568199
100.369994163299
100.370247666095
100.370462523431
100.370627355826
100.3708069773
100.371040256236
100.37088366449
100.370923485133
100.370967492065
100.370753206
100.370379735042
100.370021141725
100.369874126955
100.370061434127
100.3702748251
100.370464603661
100.372200839377
100.372053612655
100.372624915133
100.372492818474
100.372252396263
100.372575125556
100.372551734354
100.372698738386
100.372892475397
100.372834678063
100.372953903576
100.373022312969
100.373277943751
100.373558622788
100.3737376206
100.37384532952
100.373814961625
100.373715181877
100.373634362597
100.373500592001
100.373181270988
100.372923158694
100.372531071889
100.3721919796
100.371859941878
100.371469524644
100.371338737904
100.37106953754
100.371207175356
100.371059496665
100.371203282251
100.371295147268
100.371495881836
100.371411632576
100.371643282451
100.371478833552
100.371496897759
100.371346976475
100.371221872742
100.371081250478
100.370909988398
100.370715971879
100.370521714564
100.3703004817
100.370042759711
100.36975851972
100.369463481375
100.369122090514
100.368696363609
100.368225852267
100.367870019096
100.367416933885
100.367747253841
100.36819419077
100.368641420561
100.368881512892
100.369211653839
100.369527661586
100.369822596198
100.370080368782
100.370318850247
100.370539007018
100.370732454951
100.370909817604
100.371099503595
100.371310016735
100.371451472845
100.371346699797
100.37123698675
100.371232651308
100.370956925877
100.370062101269
100.369195907774
100.368859148851
100.36910576648
100.369462268029
100.370193041069
100.370627020936
100.370502341307
100.369541018409
100.371436909017
100.369689124404
100.37205621923
100.372242791125
100.373639077494
100.3722565055
100.371915743397
100.371490091074
100.370858389726
100.37016382339
100.369471316023
100.368772080888
100.368215871732
100.367684219991
100.366987298405
100.366955194675
100.364956858579
100.364378781557
100.363620513632
100.362681181
100.360481829809
100.359623891626
100.358875034465
100.358675571917
100.348985916382
100.353168972345
100.350193517965
100.349896091679
100.352139806406
100.353407728349
100.352199633779
100.352850896024
100.35314194971
100.358742620894
100.356645403112
100.358312557275
100.356462306718
100.35452285103
100.35538854292
100.357649688286
100.358998328388
100.360063366994
100.360129149605
100.357967631866
100.358731433908
100.36107030022
100.362299993126
100.36401034145
100.363712332341
100.365094325731
100.366135523725
100.367187705422
100.367985078053
100.368698663499
100.369224418429
100.369654187252
100.370004531043
100.370345258773
100.370516088518
100.370532256253
100.37064500805
100.370739248124
100.369933471985
100.368873693165
100.371479617023
100.372679004449
100.372920859908
100.372676965378
100.372703343159
100.372873135199
100.372872269672
100.373100316721
100.373068444614
100.373181343158
100.373260520569
100.373515299453
100.373617188509
100.373927370705
100.374067713514
100.374007270491
100.374041684666
100.37397841951
100.373943393649
100.373918693097
100.373805143018
100.373625538847
100.373349918448
100.373092896359
100.373015608109
100.372529897115
100.372294841039
100.372036693902
100.371938102997
100.371700112713
100.371491578059
100.371232774916
100.371333641681
100.371318824764
100.371465986244
100.371604732462
100.371521083341
100.371708308982
100.371643010386
100.371781262589
100.371666850581
100.371570063749
100.371420799084
100.371415513165
100.371210657027
100.371060146556
100.370876773312
100.370685623775
100.37045331955
100.370226782768
100.369940079776
100.369636898825
100.369332217618
100.368968077224
100.368538243129
100.368193106412
100.368411901322
100.368854646676
100.369217670956
100.369533409017
100.369837770184
100.370121985041
100.370357616257
100.370577743597
100.370785553033
100.37097958029
100.371144014194
100.37130987643
100.371321469554
100.371377694524
100.371205674782
100.371019970556
100.371250799437
100.370495255473
100.370742063793
100.36989467815
100.370333731104
100.370731283445
100.370805327176
100.371053076487
100.37088420876
100.371265175423
100.369353354324
100.373060899943
100.374580076276
100.373326909457
100.372274930435
100.372607430418
100.371337133955
100.370796999663
100.370021122238
100.369072460918
100.368415445739
100.367754841862
100.367120852058
100.366520287059
100.365915133724
100.365257266647
100.365397103745
100.365996661618
100.366826716704
100.367587215397
100.368404735128
100.369246565811
100.369997181057
100.370708095955
100.371211840212
100.371780555225
100.372410203796
100.371919822213
100.371606187364
100.371974277909
100.37226663756
100.372534005625
100.372433304683
100.37243905293
100.372659518462
100.372640974364
100.372860370105
100.372886997957
100.372923534748
100.373110873599
100.373151963593
100.373369286143
100.373660974368
100.373824891536
100.373930679841
100.373905749005
100.37389946682
100.373870509189
100.373744466589
100.373483909984
100.373112841882
100.372852314141
100.373121263527
100.373271419225
100.373458325586
100.373758329825
100.37389637871
100.374005095403
100.374056768055
100.373937221066
100.373806983003
100.373595039274
100.373514483426
100.37340621063
100.373148041189
100.37311843322
100.373030478092
100.373046920686
100.372798578121
100.372813243389
100.372647393339
100.372549919671
100.372477196389
100.372742297578
100.372709931405
100.372937048023
100.372972394931
100.373043362909
100.373049216572
100.372683807891
100.372789181089
100.37291564061
100.373058179306
100.37328750939
100.373344336062
100.37352241549
100.37386004608
100.374016575372
100.374021829113
100.373946239801
100.373771528458
100.373706036537
100.373527738769
100.37349194646
100.373415971126
100.373286726626
100.373087468397
100.372846536306
100.372500962521
100.372373682522
100.371971016005
100.371765191751
100.371612800214
100.371343698571
100.371451988145
100.371337676649
100.37161214846
100.371483845566
100.371601585755
100.371667393421
100.371781452536
100.371740913658
100.371869007243
100.371822763411
100.371884432529
100.371789115823
100.371675286505
100.371539169425
100.371367330843
100.371185500823
100.371011158474
100.370803168485
100.370597582329
100.370337074743
100.370096554967
100.369791934979
100.369465683038
100.369139297195
100.368741709412
100.368272699761
100.367917304501
100.367400219686
100.366752599315
100.366084530054
100.36545734847
100.364569735645
100.36379512091
100.364698180881
100.365523721798
100.36617468862
100.366854053471
100.367431651914
100.367861882695
100.368045837073
100.367676179026
100.36736398103
100.366758868687
100.366093456524
100.365380412739
100.364375112188
100.365217432009
100.365746063084
100.366438804744
100.36699113355
100.367331992209
100.366684529753
100.366119622104
100.365276064936
100.365842350332
100.366377356098
100.366933658551
100.367535406647
100.368048225625
100.368445003636
100.368609833327
100.368096591246
100.367649491508
100.367243101583
100.366799239174
100.366063468274
100.366573738186
100.36716513565
100.367469549486
100.367825117551
100.368218198816
100.368729568616
100.369122405762
100.369410926553
100.369660376229
100.369901128847
100.370155426821
100.370363979938
100.370539062364
100.370707284802
100.370653441109
100.370379735939
100.370046725212
100.369581042805
100.369743915045
100.369892723687
100.370191891846
100.37059155853
100.370860997983
100.370762882454
100.370832662997
100.37095174845
100.370330010694
100.369895790066
100.37025716869
100.369776688558
100.369213593876
100.368472056693
100.367651858265
100.366587476404
100.365462358312
100.365039463317
100.366484460356
100.367712944279
100.368635966081
100.369431619057
100.370015674847
100.370495538306
100.370842676466
100.370632681633
100.370962835623
100.371125730026
100.371231916936
100.371195491918
100.370983144716
100.371065740614
100.370767044621
100.370909872598
100.371669372734
100.370249272257
100.372436244272
100.37290529496
100.374386269635
100.373151993292
100.373078913079
100.372062021112
100.371539306574
100.37076667356