/*--------------------------------*- C++ -*----------------------------------*\
| =========                 |                                                 |
| \\      /  F ield         | OpenFOAM: The Open Source CFD Toolbox           |
|  \\    /   O peration     | Version:  v1612+                                |
|   \\  /    A nd           | Web:      www.OpenFOAM.com                      |
|    \\/     M anipulation  |                                                 |
\*---------------------------------------------------------------------------*/
FoamFile
{
    version     2.0;
    format      ascii;
    class       volScalarField;
    location    "1.1";
    object      p;
}
// * * * * * * * * * * * * * * * * * * * * * * * * * * * * * * * * * * * * * //

dimensions      [0 2 -2 0 0 0 0];

internalField   nonuniform List<scalar> 
80683
(
100.068615968413
100.070585487262
100.067424868371
100.071751081895
100.078777444559
100.078913668245
100.076966689778
100.077517169092
100.077502079197
100.077881903026
100.078379196465
100.078147926105
100.079872794809
100.07948802322
100.082028560565
100.082030203675
100.078601437839
100.073787027955
100.072700955821
100.072652347638
100.07365614614
100.073512070663
100.072728900301
100.074168887303
100.080615950685
100.080665720235
100.074951737393
100.073145487326
100.073040149924
100.07232730061
100.07219559046
100.07318113784
100.073131591324
100.074881881087
100.080430557956
100.080261096753
100.074063768979
100.072682550428
100.073415363322
100.073369060379
100.072487111293
100.072536953433
100.073660492756
100.078399527889
100.081671043725
100.081522175435
100.074579674192
100.074065451298
100.0718714942
100.071353335382
100.071280021367
100.070909170841
100.070374397118
100.069238263916
100.070329553603
100.071480496972
100.071642821642
100.070806904393
100.069772811836
100.068621032909
100.068249271053
100.068839467963
100.068765159772
100.068089285012
100.06864269465
100.069772845123
100.07074947691
100.071731389828
100.071704004312
100.070513390908
100.069414662582
100.070591114034
100.071017642254
100.071347943537
100.071351248406
100.071852531318
100.074290053223
100.074998137739
100.072392202693
100.075548015564
100.078665458712
100.080318066187
100.078160662779
100.077910019056
100.079073626532
100.07706813299
100.074588971172
100.070393628595
100.075695068624
100.063793139666
100.051766153115
100.057484066983
100.058603069197
100.070790419082
100.066690028428
100.067905093241
100.070059938525
100.068063966533
100.066649583377
100.066136171477
100.068709881225
100.07020975035
100.066145392306
100.065204900773
100.067541036104
100.064747166597
100.063628272432
100.064658223538
100.064662497357
100.063679148172
100.064761943008
100.067492045936
100.065163350658
100.065962538775
100.070446310438
100.069235393509
100.066470664999
100.066836547155
100.068165509691
100.070122258492
100.067856829181
100.06656379724
100.071111883363
100.071145746843
100.068148060573
100.071688187983
100.077923761682
100.083322233713
100.076688831545
100.076595727317
100.080876804565
100.096172638635
100.064786623744
100.06532817672
100.049205997914
100.022749248623
100.023660407655
100.019197139473
100.019599832985
100.02598122062
100.056733641244
100.069079733539
100.06518727437
100.064989645478
100.071888117508
100.058166218973
100.058916318144
100.058845797527
100.059038258713
100.068747050942
100.063899039458
100.063887855803
100.068692951609
100.059063865205
100.058886660435
100.058913659331
100.057998599154
100.056833460494
100.058885993975
100.057103959139
100.017606735455
100.02077519489
100.021773944118
100.021621286387
100.020821813284
100.020959340919
100.022411530666
100.023060128721
100.026383976329
100.023499276504
100.024507363133
100.028096821169
100.028100385872
100.024515093284
100.023454769513
100.026137791753
100.025644128092
100.018926328933
100.020643126485
100.027421383515
100.027856626148
100.026731596577
100.02660332794
100.027696795502
100.027570047296
100.02666670198
100.027041639296
100.027332393246
100.022109455454
100.022881919515
100.0240823786
100.024038838527
100.022762404522
100.021885622327
100.022809999194
100.022079891409
100.026421266682
100.027681377602
100.028402169271
100.028652306224
100.02781875851
100.027836171545
100.028739536958
100.028573793204
100.027899232055
100.028142533261
100.028337568217
100.028347575506
100.027617569198
100.027210840166
100.027147094238
100.027431147486
100.02697419863
100.026765926207
100.027902075732
100.026102950655
100.025935860921
100.026129005496
100.026289407926
100.025774349826
100.025729611785
100.026281449857
100.02624530688
100.026041555608
100.026275688474
100.026282067128
100.026300499673
100.026175166175
100.027966926522
100.027912479993
100.028206438476
100.028089602568
100.026117872324
100.023797885494
100.023808154929
100.023666446235
100.023658603569
100.023649589646
100.023629729131
100.02354304588
100.023547173992
100.023711147121
100.023680581118
100.02390217535
100.023890063792
100.023972915503
100.023938195565
100.023917136992
100.026141992434
100.02624623334
100.023936010776
100.022063688461
100.02192408143
100.021892941318
100.021749048711
100.021731689447
100.021548136508
100.021983327329
100.021974567228
100.021547605538
100.021757742259
100.021732540654
100.021937535832
100.021962532105
100.022093350008
100.022081505556
100.022067232936
100.020452558515
100.020407042014
100.020226115228
100.020139758957
100.019948732575
100.019943300167
100.019712004821
100.019554221259
100.019623261363
100.019799740336
100.019973438286
100.019970316493
100.020184982869
100.02026197972
100.02044452691
100.020468764002
100.01885022773
100.018814183432
100.018661797267
100.018382070763
100.018201734267
100.017907786019
100.017850524689
100.017749071785
100.017245902648
100.01728403328
100.017758132569
100.017925679601
100.018055402435
100.018332191281
100.018482452354
100.018763901333
100.016841683102
100.017036994864
100.01694857931
100.016583853191
100.016116346548
100.015804878333
100.015354028816
100.01517618781
100.01514582108
100.014295274497
100.014370598534
100.015228365783
100.015371339123
100.015735309024
100.016141941844
100.016413357655
100.013497026753
100.01425734315
100.014656991723
100.014453068804
100.013722442327
100.012803615826
100.012556810748
100.011845424519
100.011128221592
100.011303715926
100.009730076444
100.009904892951
100.011718176724
100.011679671757
100.012587511912
100.013264957587
100.009142574376
100.008530460933
100.010214920275
100.011125012266
100.010685326761
100.009185275176
100.007058104408
100.007561875589
100.006562918749
100.00421406874
100.005679348844
100.002697711199
100.002708693721
100.006183991355
100.005352795263
100.008097737226
99.9961615519503
99.9970087677454
99.9925714132732
99.995937409253
99.9997325693878
99.9988999244541
99.9939983100106
99.9898980783874
99.9943010128141
99.9936457412084
99.9858544564135
99.9901097990796
99.9876649568098
99.9878626675281
99.9911906971078
99.9882930024191
99.9988929651933
100.007282647368
100.007565036492
100.003457831635
100.011109133813
100.012391998946
100.01083678297
100.007683450416
99.9985872392795
100.002665088964
100.003015520745
99.9952789687173
99.9906380728018
100.025851271175
100.050386030508
100.051070861046
100.027953730578
99.9931097932255
99.9922920117272
100.086761873955
100.171114075928
100.112301004293
100.113302549821
100.09970825208
100.084894813228
100.075272767569
100.070218293049
100.069363561295
100.0744808376
100.088800864924
100.076988506129
100.074884927775
100.08289287414
100.06683423131
100.061903400186
100.064324998651
100.070115640491
100.081566825398
100.097255488389
100.192746557394
100.214315185075
100.215233080004
100.195061769558
100.197539694006
100.189984460269
100.214569914073
100.256340992581
100.164128198128
100.169701475018
100.226207954779
100.188571021799
100.216241381626
100.241414338375
100.179461603449
100.175953937364
100.234741569986
100.207868375773
100.177934454506
100.214711749508
100.158113759443
100.155135443943
100.206690487156
100.18380723669
100.193918414372
100.291216400132
100.340675927822
100.309190400549
100.309833086341
100.342704194554
100.311993660918
100.294595620846
100.403358793286
100.433138205386
100.40554758315
100.422071701354
100.419287095579
100.375589457647
100.316020379367
100.34936208881
100.294697900181
100.40183639668
100.428955540298
100.40233442226
100.415365750698
100.440748816727
100.392076082642
100.328496817584
100.335759030024
100.261642513064
100.302215476197
100.383371096184
100.422722983055
100.44473372715
100.457344990244
100.465566706184
100.46980151564
100.471398152727
100.471984567927
100.47197952324
100.47181225931
100.471698847017
100.471731314928
100.471871992756
100.472109887472
100.472443049596
100.472845889094
100.473320347595
100.47389400266
100.47462182906
100.475685753522
100.478341905048
100.484071964926
100.496709034377
100.517890102226
100.556883078347
100.550407877508
100.488359304892
100.436135031122
100.383366772666
100.353459613247
100.374917711841
100.372940672337
100.371095166056
100.371722309465
100.372756154423
100.373709162282
100.374842077417
100.376331479583
100.378103220539
100.379965887524
100.38167455934
100.382975537563
100.383649060835
100.382879803253
100.381889336764
100.3806689057
100.379247468186
100.377632767892
100.375809189952
100.37384795939
100.371931413108
100.370232947438
100.368848422659
100.367762140421
100.366944195222
100.366336907117
100.365923852785
100.36573026886
100.365776724372
100.366115076127
100.366811231056
100.36794147046
100.369471975492
100.371123944392
100.372320892351
100.372624040066
100.372432677092
100.372613820949
100.372621098214
100.372664810131
100.372685333863
100.372725192728
100.372790203335
100.37282471603
100.373039730377
100.37317041621
100.373288475265
100.37324897534
100.373192006873
100.37306763114
100.372955395682
100.372804683361
100.372804300436
100.372744728186
100.372982741105
100.373120931291
100.373172348081
100.373040531348
100.372920297927
100.372721003238
100.372670907589
100.372620728483
100.372592186502
100.37258664396
100.372542400407
100.372545946481
100.372442992968
100.372509699788
100.372318092234
100.372479023109
100.372459835709
100.372498796301
100.372508323767
100.372541213274
100.372564713398
100.372593151725
100.372778353996
100.372896634838
100.373028359626
100.372846801055
100.372735272407
100.372623291115
100.372471548206
100.37247785407
100.372459193922
100.372414919624
100.372407392976
100.372381643845
100.37239717828
100.372290231682
100.372324015723
100.372191406115
100.372329067079
100.37230234468
100.372327498722
100.372327383815
100.372371495579
100.372393882032
100.372394352345
100.372505443311
100.372599315938
100.372665276123
100.372668721248
100.37255609191
100.372389718925
100.372219058394
100.37219008142
100.372143983246
100.372383302531
100.372527129918
100.372461989932
100.372394031994
100.372298775633
100.372282919059
100.372273914371
100.372247029314
100.372247682157
100.372224840079
100.372243936913
100.37214179305
100.372127717567
100.372063003724
100.372176351494
100.37214972941
100.372159795388
100.372172211173
100.372202182097
100.372197665755
100.372188655095
100.37228019984
100.372334381768
100.372174072728
100.372142446111
100.372089263432
100.372123982341
100.372119826425
100.372086633824
100.372079666142
100.372079193314
100.372085977617
100.372000903602
100.37193863131
100.371936816311
100.372023255175
100.372008771977
100.372013026163
100.372016815292
100.372025288455
100.372023257128
100.371979698876
100.37206759948
100.372040750155
100.372075664265
100.371960708769
100.371953385
100.371872433929
100.371926635439
100.371925931004
100.371974301804
100.371911537208
100.371980012675
100.371948149001
100.371938699057
100.371933997314
100.371944568921
100.37188182741
100.371757115878
100.371820516098
100.371875269902
100.371837753499
100.371856317566
100.371838297698
100.371859377027
100.371846097717
100.371876585912
100.371783674016
100.371872480101
100.371691845813
100.371627573991
100.37146435356
100.37153162559
100.371462454901
100.371717914498
100.371733604286
100.371808575184
100.371760303
100.371812748494
100.371871246462
100.371831211438
100.37174973536
100.371815574811
100.371795353412
100.371789507151
100.371734687386
100.371745798497
100.371477717681
100.370644289177
100.371491948073
100.371756840922
100.371708114126
100.371739545019
100.371748505019
100.371739254681
100.371781430718
100.37176285867
100.371730607715
100.371755505826
100.371676110838
100.371573495014
100.371515112477
100.371425572919
100.371599654325
100.371448247349
100.371616908554
100.371702098709
100.371618059654
100.371693758719
100.371718943638
100.371699598894
100.371699838176
100.371694567905
100.37165742448
100.371703190022
100.371466327419
100.370547548007
100.371518087985
100.371703065826
100.371654602349
100.371665892946
100.371668360722
100.371658643472
100.371666930415
100.371646222993
100.371578647234
100.37160916522
100.371456909887
100.371487958402
100.371600929299
100.371655991849
100.371612503416
100.371508017092
100.371460306012
100.371101531595
100.3709467616
100.371218216273
100.371159055009
100.371481704089
100.371233270779
100.3715049779
100.37158522543
100.371575864258
100.371586136625
100.37159164063
100.371592742297
100.371625105766
100.371604808647
100.371627801302
100.371669366724
100.371520406985
100.370713088644
100.371617946018
100.371640803028
100.371613756153
100.371639043121
100.371575200992
100.371643886579
100.371613892186
100.371682086624
100.371662385107
100.371669164887
100.371718164872
100.371780559906
100.371855994742
100.37190229621
100.371846378514
100.37186411063
100.371919549969
100.371978040583
100.372047207326
100.372120449384
100.372194594032
100.372270050685
100.372344508351
100.372424660307
100.372495749112
100.372586662146
100.372707096672
100.372750489679
100.372784276971
100.372809527943
100.372884605146
100.372936600995
100.373169475678
100.373301814986
100.373411183941
100.373406517085
100.373333086433
100.373219183477
100.372977839037
100.372787189534
100.372636506303
100.372502647704
100.372388352217
100.37241002041
100.372484201316
100.372692697046
100.372825524348
100.373082193323
100.372955048857
100.372789549962
100.3725518717
100.372419195327
100.37234924965
100.372187604787
100.372049108572
100.371892081536
100.371764253232
100.371788468113
100.371818141788
100.372022655753
100.372236162672
100.372363444697
100.372475559391
100.372586648588
100.372514642474
100.372374615982
100.372185332665
100.372033390004
100.372037292455
100.371938573831
100.37179831021
100.371714474999
100.371510910628
100.371251769764
100.370999182842
100.370880827933
100.370673651787
100.370794498855
100.37088124431
100.371157475904
100.371469846775
100.371240466081
100.371056436865
100.370883884707
100.37068121571
100.370937129743
100.370919667847
100.371259376389
100.371289731908
100.371193447933
100.371388211028
100.371460908475
100.37169563895
100.371667634753
100.371721909862
100.371754125607
100.371787764772
100.371997360699
100.372056002435
100.372139277057
100.372198456616
100.372278947539
100.372343783541
100.372428017772
100.372488310244
100.372557461752
100.372604192102
100.372659217623
100.372711651795
100.37266023157
100.372789233336
100.372842939374
100.37288216726
100.372886628598
100.372994018925
100.373068841993
100.373310563528
100.37341889212
100.373534411047
100.373505268219
100.373483907263
100.373512986404
100.3733493668
100.37316051085
100.373030248644
100.37294199444
100.372659419796
100.372332108962
100.37215862617
100.37202349888
100.371818793696
100.371657108181
100.371516282059
100.371389058317
100.371239104001
100.371126351306
100.370992542578
100.371073093453
100.371209349201
100.371421904472
100.371573226661
100.371716108317
100.371820582241
100.371967551019
100.372104483792
100.372246700569
100.372378711214
100.372245006496
100.372419953555
100.372659511125
100.372644053871
100.372823379765
100.372755925222
100.372658788172
100.37248340299
100.372562301846
100.372667156162
100.372772643795
100.372752822543
100.372877269426
100.372926794414
100.372968918372
100.372984112088
100.373113006775
100.373181038607
100.373417206619
100.373517601175
100.373605622716
100.37359291405
100.373607091792
100.373452813945
100.373296310607
100.373045696205
100.372766796481
100.372494693138
100.371997014942
100.371783175033
100.371608957399
100.371437287889
100.371252220561
100.371100534835
100.370910618744
100.370752835332
100.370609134024
100.370799493079
100.371023396901
100.371253165658
100.371551095172
100.371619284292
100.371822424908
100.371668732187
100.371864005089
100.372029651532
100.371900111204
100.372128024115
100.372574245423
100.372784355519
100.372755004452
100.372708401106
100.372804471358
100.372861969105
100.372960771428
100.372999813284
100.373053832886
100.373073305584
100.37320777068
100.373275573462
100.373503338951
100.373611194369
100.373716464505
100.373698259996
100.373716727234
100.373565466386
100.373436825197
100.373203025628
100.372906198806
100.372662077502
100.372198364628
100.372012070637
100.3717268465
100.371531298441
100.371484140573
100.371254359094
100.371087710553
100.37091214043
100.370755516931
100.370523806464
100.370293609854
100.370080496122
100.369897187074
100.36970293049
100.369438056464
100.369192604209
100.369489799169
100.369800004965
100.369989042906
100.370162480493
100.370344679507
100.370542599009
100.370794343264
100.37100655065
100.371153927344
100.371299832119
100.37152037539
100.371365522264
100.371202047569
100.370823835289
100.370870527713
100.371050645231
100.371051683774
100.371494624205
100.371745420563
100.37235660502
100.372629753196
100.372597781709
100.372588533279
100.372677644144
100.37273653576
100.3725448
100.37267139133
100.372756834042
100.372690022914
100.372847319854
100.372937968001
100.373059195625
100.373079654512
100.373146037023
100.373156185256
100.373300856053
100.373381470876
100.373601372256
100.37371475329
100.373856431498
100.373776185519
100.373851742387
100.373701186976
100.373561822957
100.373326109548
100.373048540907
100.37279723321
100.372346272242
100.372145656501
100.371753873689
100.371704241823
100.371543268124
100.371582874988
100.371498863595
100.37159255067
100.371413733746
100.371232721991
100.371078179578
100.37090833971
100.370713351757
100.370465931669
100.370228535246
100.369992346254
100.369754907942
100.369439539353
100.369083188654
100.368754583027
100.368485406837
100.368065899093
100.368323491683
100.3687122672
100.368994933032
100.369334702785
100.369585739874
100.369796917857
100.370048016753
100.370292531955
100.37054404797
100.370714110058
100.370880656531
100.371039079516
100.371262446493
100.371236040657
100.371143585881
100.370982850655
100.370894222465
100.370799830056
100.371022601806
100.370593582626
100.370306233392
100.369925219746
100.369525622567
100.369118522402
100.368621810879
100.367895864699
100.366904576533
100.365500990964
100.364765079666
100.365017224301
100.365816087306
100.366647816398
100.367305599991
100.36800836831
100.36856820874
100.369097878134
100.369563060084
100.369967967283
100.370324656932
100.370868004568
100.369228674183
100.368720134881
100.368403156887
100.368118358263
100.36783180761
100.367563094855
100.367088560589
100.366458481459
100.365452056752
100.364551030075
100.361468622411
100.35910985082
100.36280898272
100.36192915368
100.360793079499
100.356927311303
100.356934059687
100.356980104482
100.359957440117
100.36151897906
100.362388278795
100.363761644174
100.36460231252
100.365980603394
100.367003830667
100.367696174683
100.368389120829
100.368921542602
100.369449179285
100.369877123842
100.370262157511
100.370605618856
100.371035650152
100.37084849102
100.371479116176
100.369664884019
100.373010281527
100.373245842554
100.373343860754
100.373513701669
100.373687253948
100.373451531204
100.372744567336
100.371805490564
100.370760749367
100.369424986527
100.367693503066
100.366195134961
100.364593702191
100.36531295826
100.365139221751
100.361952555703
100.359720407209
100.359552914758
100.349062528461
100.352318231888
100.351486397089
100.355289298029
100.35808470132
100.365660545502
100.367501084092
100.370261611247
100.37001596369
100.370207478491
100.37036205616
100.370644063719
100.370971209781
100.371292807434
100.371647572514
100.372017617944
100.370517579303
100.368812834899
100.367347621343
100.366358984366
100.365825373282
100.365640849606
100.365734300873
100.366045442365
100.366536709667
100.367191914099
100.368044087265
100.369175215011
100.370613693154
100.372366836404
100.374332155356
100.376346505774
100.378240236622
100.379937365416
100.381435184419
100.382711587878
100.383734980315
100.384517979283
100.385095632016
100.384229371315
100.382825174008
100.382276682915
100.381562439751
100.380654703587
100.379543934608
100.378260810235
100.376789677472
100.375082952632
100.373213894015
100.371384803218
100.369768455261
100.368459270567
100.367443644316
100.366691446385
100.366167745791
100.365870320506
100.365811812393
100.366010236007
100.366501930908
100.367362041429
100.368624970246
100.370189162425
100.371742926147
100.372576220555
100.372771343455
100.372887036991
100.372858289376
100.372855531211
100.373004154617
100.373126877341
100.373140753713
100.373233846148
100.373256039008
100.373442317447
100.373541962109
100.373718198902
100.373868133246
100.373880813615
100.373940106055
100.374014122398
100.373994543412
100.373854676943
100.373721971763
100.373433364195
100.373220789131
100.373028569986
100.372920177312
100.372620139284
100.372303484229
100.371924248218
100.371829841873
100.371678605005
100.371644194212
100.371752072023
100.371667569421
100.371921830999
100.371806896339
100.37161670217
100.371728375181
100.371510051679
100.371344767282
100.371183953271
100.370966197329
100.370726099595
100.37048815422
100.370220292797
100.369914074357
100.369641591311
100.369202869968
100.369404903523
100.369768101272
100.370073480328
100.370329439856
100.370566782872
100.370815550419
100.371028523183
100.371191336847
100.371368104115
100.371590949099
100.371463902837
100.371495877437
100.371542607684
100.371343226813
100.371009549296
100.370712852953
100.370610057723
100.370770847837
100.371076502856
100.371289404392
100.372506175882
100.37256639522
100.373116241941
100.372910562858
100.372710664019
100.373050151147
100.373029661049
100.373161696775
100.373333951781
100.373274651448
100.373386390783
100.373449681369
100.373690035057
100.373981203915
100.374150450071
100.374235228285
100.374193827871
100.374101903563
100.374005857918
100.373887504181
100.373605401623
100.373385523144
100.373046044313
100.372738723206
100.3724425475
100.372076918124
100.371958893351
100.371681517338
100.371796589214
100.371643884317
100.371781806203
100.371857947198
100.372051367159
100.371963070864
100.372210191207
100.372039718474
100.372062860671
100.371914664957
100.371788593128
100.371648119497
100.371476662992
100.371281591173
100.37108638622
100.370865323271
100.370607883789
100.370324387377
100.370029166597
100.36968665446
100.3692544001
100.368776470101
100.368417088514
100.367990185644
100.368314350455
100.368763465483
100.369205660707
100.369460176029
100.369785994259
100.370097772419
100.370387448897
100.370641487433
100.370878545669
100.37109847938
100.371291412537
100.371468111003
100.371656699813
100.371870020442
100.372012611922
100.37190108479
100.371793090434
100.371786460606
100.371521130474
100.370647599629
100.36992410154
100.369658821538
100.369884030692
100.370185842199
100.370845970927
100.371276554659
100.371172881424
100.370287849915
100.372084802496
100.370393727505
100.372589903574
100.372761882282
100.374128098133
100.37239838062
100.371776397237
100.371129598816
100.370306801057
100.369503553002
100.368802067901
100.368189619597
100.367686168751
100.367226661648
100.366625115108
100.366739541755
100.364923760302
100.364693797532
100.364243761782
100.363101070944
100.360591291316
100.359636053146
100.35902263042
100.359067935208
100.35002876484
100.354228616659
100.350542946714
100.349361005292
100.352696011858
100.354191885552
100.352115710319
100.352610364778
100.352607174897
100.357823255573
100.355945051221
100.358022451996
100.3563397814
100.354364310933
100.355370377176
100.357892658612
100.359315850975
100.360469923144
100.360790535242
100.358384135032
100.359351332996
100.361753240669
100.363067900871
100.36485483507
100.364510393515
100.365915603064
100.366964345892
100.367979026896
100.368733581534
100.369404869795
100.369903558125
100.370312113895
100.370645213899
100.370966193705
100.371121501382
100.371147473099
100.371273830256
100.371401193805
100.370554003876
100.369633306678
100.371989175861
100.37313760651
100.37323471215
100.373089369891
100.373059281853
100.373320754851
100.373317172952
100.37353541909
100.373508906707
100.373618601565
100.373706668436
100.373972186187
100.374071715731
100.374376145575
100.374524006021
100.374476159919
100.374506002689
100.374423674995
100.374366730265
100.374328874508
100.37421499762
100.374055601506
100.373801503199
100.373584472748
100.373488310775
100.373063216224
100.372850998294
100.372618885707
100.372527449742
100.372302343112
100.372103350845
100.371829898486
100.371909863294
100.371889520282
100.372015462034
100.37216235346
100.372075191892
100.372273670504
100.372201375612
100.372350998648
100.372237529665
100.372136553708
100.37198634922
100.371987637544
100.371779732568
100.371629749598
100.371446424769
100.371255637755
100.371023721302
100.370798493424
100.370512841988
100.370211159966
100.369907819888
100.36954420709
100.369111716149
100.368772142019
100.368982119758
100.369427650311
100.369788703399
100.370102560389
100.370404850452
100.370687804617
100.370921823687
100.371140849468
100.37134765457
100.371541091941
100.371705870323
100.371871948012
100.371888362262
100.371937366653
100.371762729768
100.371569723886
100.371792116292
100.371056529834
100.371296972575
100.370547155436
100.370984172073
100.371353875358
100.371439902119
100.371691651903
100.371585939759
100.371846351883
100.370011684422
100.373667061943
100.375155926101
100.373171580756
100.371972412183
100.37209706747
100.370634697586
100.369907545115
100.369031914681
100.368131209655
100.367597107568
100.367071858904
100.366588273046
100.366098250368
100.365701133798
100.36530258895
100.365299578483
100.36572493837
100.366313684875
100.366819192747
100.367498941459
100.368143205237
100.368876520949
100.369668838116
100.370358955634
100.371081060535
100.371956130849
100.371234681247
100.371082225485
100.371869242301
100.372239238738
100.372923312973
100.372944379856
100.372866250024
100.373101861202
100.373111838799
100.373313217819
100.373335524124
100.373358648509
100.373545729724
100.373579049064
100.373789847577
100.374096897709
100.374253555182
100.374336232827
100.374306790077
100.374301980975
100.374279740764
100.374175297666
100.373920533671
100.373525074313
100.373282097082
100.373555689926
100.373700821056
100.373885810432
100.374197582823
100.374331766271
100.374423006848
100.374501776786
100.374380360188
100.374252590877
100.374032312294
100.373972385728
100.373844887896
100.373587965266
100.373551359995
100.373477274814
100.373489744982
100.373255214587
100.37325769776
100.373027463016
100.373021994064
100.37285672076
100.373178881601
100.37317224284
100.373381398672
100.373420535397
100.373475741707
100.3734926575
100.373131166217
100.373226436009
100.37334534301
100.373476930854
100.373733312521
100.37379084706
100.373989029947
100.374347479074
100.374521545046
100.374545225308
100.374479348492
100.374312704413
100.374225399517
100.374058265864
100.373991577694
100.37389483552
100.373770388116
100.373602458324
100.373380750989
100.373057153148
100.372937496104
100.37257290657
100.37236104402
100.372219081063
100.371936069941
100.37202571271
100.371903151646
100.372167660205
100.372042921104
100.372158443404
100.372222802394
100.372344914118
100.372297642892
100.372437611864
100.372385336117
100.372456775828
100.372363636372
100.372249613882
100.372111292306
100.371938023128
100.371755273995
100.371580327435
100.371372217959
100.371167273365
100.370907328196
100.370668476501
100.370365456124
100.370041581268
100.369717423226
100.369321439068
100.368852337985
100.368492483334
100.367975161148
100.367323425379
100.36665354807
100.36602051683
100.365120647028
100.364353643691
100.365249191992
100.366086157374
100.36674399415
100.367428213425
100.368011607791
100.368439818095
100.368616856417
100.368249093092
100.367927407708
100.367315604092
100.366643855986
100.365912896091
100.364947340253
100.365771768702
100.366334350937
100.36702277668
100.367560335527
100.367914703276
100.367294690347
100.366716412215
100.365920857033
100.366480988111
100.367027935833
100.367574114001
100.368169207383
100.368671496356
100.369052326137
100.369222104132
100.3687332329
100.368294749076
100.367892627295
100.367453048677
100.366751597374
100.367245750632
100.367840926955
100.3681431544
100.368491046833
100.368873819913
100.369382639436
100.36975649387
100.370034756434
100.370276641728
100.370511182059
100.370759258126
100.370959683601
100.371128285026
100.37129233511
100.371232813946
100.370985666182
100.370681379022
100.370336352704
100.370481119195
100.370594941523
100.370825567162
100.371185326893
100.371433205606
100.371326958578
100.371380050958
100.371491089289
100.37087798812
100.370480872427
100.370826963662
100.370365753322
100.369825687613
100.369120949336
100.368353416519
100.367355705207
100.36628253106
100.365743619199
100.367171101866
100.36836694674
100.369258450874
100.370029422088
100.370598388652
100.371065666047
100.371403860372
100.371189380472
100.371506845527
100.371672801939
100.371750387969
100.371741617496
100.371553544404
100.371643928062
100.371402380713
100.3714958378
100.37226832605
100.370857231097
100.372952101315
100.373355562904
100.374727209063
100.37330982178
100.372747503996
100.371475371136
100.370874771725
100.370012163908