/*--------------------------------*- C++ -*----------------------------------*\
| =========                 |                                                 |
| \\      /  F ield         | OpenFOAM: The Open Source CFD Toolbox           |
|  \\    /   O peration     | Version:  v1612+                                |
|   \\  /    A nd           | Web:      www.OpenFOAM.com                      |
|    \\/     M anipulation  |                                                 |
\*---------------------------------------------------------------------------*/
FoamFile
{
    version     2.0;
    format      ascii;
    class       volScalarField;
    location    "0.6";
    object      p;
}
// * * * * * * * * * * * * * * * * * * * * * * * * * * * * * * * * * * * * * //

dimensions      [0 2 -2 0 0 0 0];

internalField   nonuniform List<scalar> 
87341
(
100.097073207815
100.099085163472
100.095479525536
100.099991457757
100.10700827013
100.107244318494
100.105279466135
100.105880031961
100.106087594545
100.106410743479
100.106579846922
100.106311640631
100.10809236633
100.107638279994
100.10987134066
100.109920370868
100.107432152477
100.103992322659
100.101487914833
100.101154269572
100.101025698511
100.102454479042
100.100260172397
100.102007367634
100.104322133438
100.108473718588
100.103092790907
100.102049334936
100.101291889632
100.101093577526
100.100971900883
100.101394325006
100.101984636684
100.102978437744
100.108221657843
100.104162806856
100.101788059092
100.099966376352
100.102098297135
100.100642197467
100.100826990369
100.101166674051
100.103696860963
100.107128824248
100.109481725932
100.109329969088
100.102579327275
100.101654828372
100.098794989952
100.098897823774
100.099233241538
100.099079526845
100.099019532734
100.098814839457
100.096460176163
100.099862882197
100.103303311643
100.101758365278
100.098495243826
100.097476222959
100.096765846334
100.097446431105
100.09739164011
100.096619298949
100.097536023738
100.098568555874
100.10190772057
100.103514298504
100.100113639552
100.096705092937
100.099142742988
100.099356752489
100.099357241172
100.099491250576
100.09905087559
100.098948878865
100.10195905095
100.102985788771
100.100572539019
100.103768288561
100.106849371534
100.108367778216
100.10622424166
100.105986794323
100.107204555154
100.105365029792
100.102896298768
100.098641029473
100.104104065968
100.092584672596
100.081385280508
100.087393330541
100.088603965782
100.098723039595
100.093556968564
100.094605215401
100.097198742396
100.09617944439
100.095657247765
100.095799972608
100.095101229972
100.099470016022
100.100044026885
100.095883136449
100.096303908625
100.093525062649
100.092380935979
100.093373512569
100.093391972371
100.092451761663
100.093574535114
100.09632017084
100.096023587538
100.10021205666
100.099750879228
100.095271601321
100.096172795233
100.096002557479
100.09646493722
100.09748043423
100.094777253516
100.093642759989
100.099169690351
100.099471473137
100.096132690564
100.099841213889
100.10623698757
100.11122649628
100.104178130384
100.104000462921
100.108817485546
100.124157087824
100.093627045862
100.094193779151
100.078808469167
100.05198414518
100.052874980999
100.048613087929
100.049107998813
100.055257309947
100.085497044926
100.096890415787
100.093679268905
100.093364727823
100.098036168148
100.104676496218
100.086699484902
100.087289317145
100.088621257108
100.097538863536
100.092742517081
100.092740321875
100.097507603216
100.088662772964
100.087360938363
100.086823546707
100.085279555793
100.08576208174
100.089062461008
100.087312187779
100.047416325291
100.049489972157
100.050722016056
100.050492113327
100.049536227091
100.049578911934
100.051712643306
100.052106268251
100.055760959026
100.085109149998
100.080258402565
100.063914825057
100.058198900366
100.058042250704
100.055155812696
100.056108594612
100.050573903395
100.050745346462
100.053100165724
100.056811862968
100.056821263648
100.053115571177
100.050739288602
100.055896062947
100.054991706714
100.048672636782
100.049549002023
100.055942162618
100.056367644605
100.055492951392
100.055181677109
100.056101630204
100.055956110003
100.055087842577
100.056193806904
100.056279176014
100.056949360827
100.057119135449
100.056472828698
100.051750038022
100.052553673717
100.052544741009
100.051798257971
100.050733212705
100.051855329064
100.051472844874
100.054943052536
100.05608976007
100.056845812237
100.057151300892
100.056476880494
100.05640630391
100.057099777696
100.056992427216
100.054849058697
100.054615307443
100.054737969948
100.054929207237
100.055029052935
100.054909014527
100.05670086241
100.055810211102
100.055791090781
100.056382846565
100.055864051013
100.054937955575
100.056088998004
100.054546983765
100.054427187177
100.054617087072
100.054712034951
100.054520616276
100.054564082271
100.054835864955
100.05239381607
100.052467304405
100.052413593644
100.0525401338
100.052621286816
100.05271145386
100.052677877772
100.052645898908
100.054872489901
100.056659859143
100.056961981424
100.056754918287
100.054734183904
100.052418203899
100.052323304196
100.052191171143
100.052214594502
100.052230760142
100.052188807984
100.052256811192
100.050246353319
100.050431378776
100.050503876771
100.05042495985
100.050567071909
100.050732355031
100.050872792909
100.050845481791
100.05080790633
100.050753815955
100.052607716866
100.054913796015
100.055320069471
100.052817901313
100.051010010939
100.050514026634
100.050325924438
100.050206774891
100.050296715692
100.05030270011
100.050190527672
100.048115532524
100.048130825792
100.048528638806
100.048597010796
100.048436556171
100.048618439486
100.049009002362
100.049271913721
100.049208716365
100.049168723719
100.049138296713
100.048780733549
100.048354408743
100.048226962638
100.048441560312
100.048435545668
100.046000057534
100.045376338683
100.045342573046
100.046084242374
100.04626596979
100.0459393961
100.04615598865
100.046882654401
100.047346828927
100.047264199506
100.047224054904
100.047193125377
100.046644335197
100.045849576531
100.045709272127
100.046087729797
100.043503685425
100.043283670827
100.041937241537
100.041751951666
100.043306841519
100.043802125665
100.043829497188
100.044175996643
100.044780673055
100.045605955483
100.045190771894
100.045169183938
100.045440597763
100.044528613737
100.043829001899
100.043495346307
100.038602277955
100.032815797398
100.031569965512
100.034401907022
100.034717107126
100.033189419127
100.033926355008
100.039279751511
100.040618281049
100.037592631817
100.040460135063
100.041770347568
100.041766193058
100.040446649995
100.037323866569
100.040190881933
100.061440862455
100.060795333297
100.061791104281
100.064090727223
100.071502264764
100.061501615257
100.061191887241
100.070353138404
100.067994529072
100.060855913233
100.067676188473
100.079720883574
100.078334051622
100.067398676885
100.058795718994
100.057397623276
100.054991051741
100.059743747699
100.062027970898
100.067146451192
100.060500335911
100.053097133112
100.052559058325
100.049626557545
100.044422192952
100.043636176151
100.047942019381
100.051397467421
100.052597981336
100.056395243202
100.070038405066
100.063539146633
100.06757972396
100.060708876135
100.062606495719
100.056646967702
100.06778073423
100.065874980939
100.064385094214
100.068924020542
100.088233312192
100.124449138676
100.167406030819
100.216871979813
100.267228827301
100.320546656356
100.36289952051
100.395058331455
100.432779181458
100.45836510859
100.471948902443
100.480873308088
100.449532107726
100.452968033867
100.45624016875
100.457007952804
100.455541347482
100.453843988779
100.453640570316
100.462158895357
100.460767557501
100.462614382412
100.464920228959
100.466289631242
100.468276732023
100.466364287583
100.467613111818
100.445374515346
100.459036777718
100.473285308128
100.459932755121
100.452331954918
100.442595556978
100.441629328285
100.44568117414
100.439161072867
100.419510311766
100.428354601927
100.438517152402
100.441595121425
100.431812843489
100.432885156175
100.43989167442
100.448762686206
100.446036226724
100.463432002563
100.414175050172
100.427025871129
100.430060253445
100.428969499707
100.42561257649
100.414323579254
100.418913803224
100.419853493218
100.412700001271
100.408810371286
100.413903225478
100.417991543673
100.418407434501
100.4140527538
100.408304533361
100.412303604847
100.420650604328
100.419438299237
100.467443636447
100.465502215108
100.407933259524
100.411062651968
100.409821312086
100.407905601419
100.413246077888
100.401348083472
100.397859212169
100.410801730102
100.409390952883
100.40761989443
100.410169724549
100.407164136501
100.413623989546
100.408111216341
100.399835892023
100.406978159921
100.421062851475
100.446190152802
100.443269267028
100.452507910859
100.45364988745
100.454453005251
100.455549875351
100.458329925438
100.459377368174
100.462667284063
100.459260205241
100.460274977746
100.462357129871
100.464555435149
100.45863808307
100.468575772093
100.45316314352
100.439927408304
100.438529410209
100.451118120433
100.445124166484
100.438287028297
100.434294554831
100.423234490634
100.415876969343
100.436963379446
100.456091239209
100.458158961447
100.459962520704
100.411879735583
100.41124487912
100.410214466346
100.404570425285
100.398015244069
100.403215970854
100.398827862227
100.392375306402
100.399016612713
100.40240686998
100.398163421785
100.401052026586
100.399255127933
100.400963758999
100.401066778154
100.396240187676
100.399800299451
100.398582186876
100.402488923892
100.397673261824
100.393423224479
100.40311505319
100.40748467979
100.4164709389
100.426979455592
100.429255773822
100.425241453026
100.418681958522
100.422217002354
100.455443735085
100.483178695931
100.467323866985
100.487139669061
100.501959992606
100.465966583781
100.443405598981
100.447313189036
100.466507538434
100.461860172502
100.460989320842
100.494824052091
100.484907095706
100.488679447547
100.474852882827
100.481128146641
100.472988746992
100.47340697812
100.478964959153
100.473760507151
100.490554550153
100.473723971324
100.482527514509
100.478398902321
100.478774068643
100.481626719908
100.490699940001
100.501715751334
100.503640844442
100.486658470107
100.485032507647
100.488899765366
100.49364646201
100.48640522096
100.458769630248
100.426639413121
100.42751260902
100.434528671636
100.438471502135
100.43613473283
100.427396406229
100.418914760756
100.410416078199
100.414240276154
100.399201108714
100.394294044425
100.404878219598
100.404250153909
100.415760307049
100.411224857875
100.401328049948
100.390800325832
100.40956815053
100.416161304968
100.413172829144
100.41056396761
100.407118170302
100.451062996585
100.456473781239
100.453334268169
100.41038547888
100.419357518812
100.417965723477
100.415420971639
100.412086574232
100.408831781896
100.417902198539
100.441024612163
100.450916713274
100.448465255518
100.403945282937
100.405650974737
100.3868931516
100.395550377451
100.407918333331
100.410173073853
100.401423236212
100.389079556935
100.390293030625
100.395368463134
100.409665071414
100.413124024019
100.426387594456
100.456225271516
100.489423297528
100.487037990152
100.472129521814
100.475623649996
100.477062300974
100.487884207648
100.492377322605
100.478934920163
100.479546145893
100.472661123107
100.499750705528
100.49720497167
100.500124223418
100.495470433628
100.481036660948
100.480866914359
100.493702949015
100.491624286509
100.486615631499
100.487017419287
100.489662233965
100.487950191594
100.489964133675
100.471755402225
100.479839002545
100.456787008822
100.443629438108
100.442423722277
100.44487628919
100.457525027116
100.437727476201
100.442376587559
100.43990003855
100.43685767282
100.433026077006
100.431081794762
100.46171218775
100.464162129546
100.46530237323
100.466414041199
100.460964766404
100.464068071215
100.461909998573
100.463064705731
100.462508704483
100.462704201537
100.46381384662
100.4638089857
100.462240300108
100.463217416653
100.462750645123
100.462075057251
100.462076819048
100.462266406252
100.464231983886
100.464352201692
100.46527537319
100.463765485255
100.463304349873
100.463699098201
100.462277522171
100.462186181807
100.462317533556
100.462208628812
100.461661649699
100.462454508701
100.463638869441
100.464690618782
100.464099691137
100.464314284534
100.463836881382
100.464087325963
100.464298520907
100.463774881888
100.464082107781
100.463456761699
100.463630774482
100.463536520707
100.462978023889
100.463124226245
100.462675467163
100.4627261308
100.462513017912
100.462490962758
100.462309429
100.461987817417
100.46162242326
100.461603505954
100.461165022785
100.461348543101
100.460718315675
100.460025878937
100.460368952885
100.460009787214
100.463023708559
100.46443988719
100.465202594525
100.467267739339
100.466940759036
100.466066246621
100.466845905043
100.465921025707
100.466120493808
100.465588792571
100.466068703027
100.465088380109
100.46575134703
100.464479486937
100.465126078615
100.464593198503
100.465306579212
100.465459299831
100.466594880466
100.467336907238
100.467111304511
100.466568631094
100.465644783314
100.465720495832
100.464593868248
100.464239926714
100.46419085508
100.464937882001
100.466655072237
100.466312182237
100.465308334855
100.464983318842
100.46704622736
100.465876051444
100.465129838252
100.464641722364
100.464227208312
100.461554820046
100.464046294024
100.463410049612
100.463341025271
100.462654800735
100.462608822453
100.462833653153
100.464261204104
100.464999453762
100.464354960721
100.465412326564
100.465720806678
100.466482354062
100.466071745826
100.466762905187
100.466122950522
100.466391486983
100.466209399299
100.465983562262
100.466481037359
100.466801388283
100.464867147543
100.466191493891
100.464314539309
100.464202396747
100.464918330327
100.462566157522
100.46446478431
100.464064603612
100.466018387562
100.46566861619
100.46620465915
100.465965722049
100.465737519051
100.465384935399
100.46454843411
100.464946511698
100.465182104162
100.464070335911
100.459809496172
100.458706050581
100.459159383284
100.459496748527
100.460130586258
100.462635793738
100.464390969014
100.462812287257
100.460362087226
100.457033731831
100.452309897323
100.445732034128
100.453864657025
100.452274064995
100.451897558861
100.452006433813
100.44903225344
100.452914880445
100.457350678998
100.462850535247
100.460178096096
100.462992672233
100.46148364288
100.460910377638
100.463869512949
100.461582257844
100.461642976033
100.464630284926
100.461771737452
100.462539551154
100.465081846787
100.462112546577
100.461078375864
100.459045517608
100.460186713961
100.458677281879
100.45924971887
100.462216699064
100.460678631369
100.463173720002
100.460273388869
100.462162676647
100.460479054813
100.461098109266
100.461258394974
100.460548773913
100.460578581886
100.461780932437
100.462431683898
100.462565264262
100.462647092769
100.462597509084
100.462763036202
100.462788844815
100.463018113508
100.462946623188
100.462774660038
100.462808826367
100.462360027273
100.462286970467
100.461558609982
100.460525007909
100.460485648018
100.461383537344
100.460344073254
100.45875555092
100.459232890785
100.460619471366
100.458839811707
100.457902512108
100.46071375431
100.46126074853
100.461373277206
100.460275757824
100.457522196428
100.459237952906
100.461668226007
100.461719148273
100.461747806588
100.461351007467
100.462132467958
100.462250412911
100.462186797544
100.462785734574
100.462971379553
100.463615380563
100.463764430553
100.463645072145
100.463484345896
100.463935211957
100.463805983651
100.464194560604
100.464133517766
100.464347902244
100.463697883206
100.464586603261
100.463867726977
100.463041059953
100.462534878001
100.464005758197
100.463733522244
100.464562056805
100.464966208689
100.466119748029
100.46671683902
100.466240188745
100.465477082133
100.465167161703
100.464908919662
100.464959522265
100.464583032229
100.464505228745
100.464125646722
100.464232139122
100.464169285298
100.463406033805
100.463430917313
100.46285859892
100.463103799726
100.463048921643
100.462451843873
100.462228064353
100.463148804261
100.463025372604
100.464595452696
100.464131236875
100.463298563478
100.462576539927
100.463068367059
100.464393272818
100.46411318318
100.463697917713
100.463107377437
100.462824051052
100.464030410127
100.464894074189
100.465781967294
100.465793334407
100.466070866699
100.46641668534
100.466945211027
100.468593684055
100.467490714716
100.466949390041
100.466460741248
100.465898005848
100.465731691808
100.465427759918
100.465137226411
100.464946750853
100.46469614644
100.464645828615
100.463964071782
100.463720965042
100.46340032044
100.463392818509
100.463181909947
100.463254977988
100.463137786621
100.462969812017
100.462896736081
100.462358781119
100.461801455484
100.461239463148
100.460048281661
100.459837307696
100.460902399973
100.461261915547
100.459751143882
100.461376851877
100.458172132851
100.455449484949
100.450360960439
100.447141878064
100.45189459914
100.45184195644
100.453136989444
100.452489522086
100.45257970727
100.456302242067
100.455935233078
100.456004318138
100.455592904003
100.455719744826
100.455345619401
100.453399384993
100.450087258421
100.438374920366
100.437131729365
100.436987689018
100.437864946805
100.440204306809
100.443527460804
100.449032464807
100.446817040142
100.438155655595
100.422912806513
100.406113353119
100.429817490809
100.424618729908
100.419455305011
100.418463246927
100.421326858766
100.424002190586
100.415325696897
100.430836455603
100.444590247884
100.439791911684
100.448609851078
100.441919820235
100.440769681287
100.448925180526
100.441575011516
100.441605857434
100.448959814012
100.439830790291
100.442509279098
100.435640690365
100.44494715016
100.438293650067
100.44441878549
100.444335224116
100.447264317488
100.451456610977
100.455875373443
100.460932472771
100.46195920425
100.460751929882
100.461186692832
100.461662510159
100.459801300926
100.460016671352
100.462175310369
100.462250463555
100.460701980625
100.460400375898
100.458563034457
100.456591073438
100.447926432364
100.434993206313
100.422191988566
100.414304687855
100.4086818628
100.418796648717
100.414530723694
100.419797727889
100.413524257844
100.410992414819
100.408712598027
100.408467452781
100.41006240113
100.408631021528
100.413918647025
100.385396343238
100.371686316385
100.372004320004
100.377831417551
100.396244770275
100.397032218987
100.380283422774
100.364645869632
100.36337680008
100.335126211536
100.336559323895
100.339276080591
100.35092593091
100.343310298902
100.323954064869
100.291622773604
100.273737930076
100.309369903371
100.29804051197
100.296686662962
100.306162181157
100.335758826607
100.344816189834
100.334832532762
100.363326819207
100.385916130263
100.386058272906
100.385897853556
100.385759824129
100.38506704741
100.374751723414
100.400312992588
100.380966781857
100.393923463092
100.388565161591
100.392928761458
100.399819817645
100.411515253375
100.437114910656
100.44400038584
100.453098683949
100.460619857174
100.457818959535
100.4505377035
100.441680614453
100.418042199055
100.399602382377
100.365670778663
100.343134583562
100.330372274315
100.323739292172
100.324308226652
100.342972028979
100.332834667537
100.337504571843
100.32590109919
100.328650998909
100.326793686253
100.325868533452
100.330192715261
100.289095097411
100.27714992071
100.286466721282
100.317078279832
100.361360631058
100.390844613443
100.415651428839
100.435340187441
100.445558971369
100.451616918168
100.45370063186
100.454410792435
100.46242222581
100.4954810873
100.47910469652
100.476002079015
100.475758943238
100.47485481283
100.477534015457
100.481492991226
100.500066297785
100.487461628393
100.478681152708
100.475212613479
100.447305539316
100.43094645357
100.430238841053
100.434974267404
100.451770828509
100.440014032504
100.435002119466
100.429844952926
100.420425758954
100.421762137924
100.431446110267
100.432899701054
100.423973906415
100.42516033282
100.435427396859
100.439652979215
100.442195148531
100.455032575453
100.420429748266
100.418506598197
100.415359009558
100.406332846439
100.406916063388
100.417697061942
100.410276027388
100.410054888089
100.403467348272
100.398298424632
100.404317145376
100.409792727226
100.460446213376
100.465514821889
100.463032015033
100.469648590294
100.465800475125
100.469398562656
100.467231486839
100.470253714371
100.465303012454
100.464442133709
100.463681652248
100.464363837445
100.462732435985
100.464002535323
100.463926042618
100.463592637532
100.462704488303
100.462108245822
100.461246001792
100.461031083926
100.461040864576
100.463758356145
100.465630857258
100.466403203827
100.467017774456
100.468010969351
100.469322281004
100.469631838834
100.46903299332
100.46811581907
100.464657006302
100.460450809128
100.464128497509
100.466940807492
100.469211210086
100.473113284896
100.470344765274
100.468502290602
100.465755340017
100.467809262365
100.468709023613
100.470390352138
100.470923244335
100.471680126102
100.472636955109
100.470985847471
100.470976637332
100.471320540422
100.470990010718
100.470372282595
100.469851835039
100.469632282169
100.469841001621
100.469694435449
100.469631777605
100.470079720587
100.470223696981
100.470143169683
100.470405767103
100.470739841728
100.470819094419
100.47066139725
100.470471329699
100.470348667998
100.470044427796
100.469854187453
100.469693331247
100.469544524152
100.468965087542
100.468481821012
100.468229733715
100.467775588454
100.467037719057
100.467292965401
100.467293308098
100.468118559622
100.467811677752
100.467980113628
100.468593491722
100.46882228551
100.469148758948
100.469417672616
100.470003198166
100.470144284237
100.470084812098
100.470540152001
100.470678189715
100.470959442143
100.471137525464
100.471901202414
100.47177599586
100.471338585603
100.471140948513
100.470588567299
100.470445824633
100.471199897865
100.471289644259
100.471913761625
100.472071080416
100.473184110379
100.474090016365
100.474216451285
100.473540656582
100.474807398234
100.474314087146
100.472755821485
100.472275466474
100.471909575665
100.471612633958
100.471369241691
100.470884238252
100.470835418202
100.470107473633
100.469909981817
100.470229989458
100.470446880912
100.469736008106
100.469590582655
100.469528052897
100.468902723147
100.468945411153
100.468614840018
100.468100389647
100.467943000591
100.4675649303
100.467289645909
100.467025276822
100.465199869616
100.464767210046
100.46386670763
100.462591734684
100.46296604939
100.461369740917
100.46065945358
100.460792349117
100.460499665016
100.460926133488
100.461446683487
100.46197528679
100.462165243453
100.461763518639
100.461116299955
100.460784418596
100.461069110098
100.461114717224
100.46131098787
100.462316138796
100.463580469801
100.464469653425
100.465660772138
100.466337999893
100.467013096052
100.467927034416
100.468853466216
100.468455459535
100.468820601021
100.469208245869
100.469115288614
100.468814747935
100.469070156236
100.46938850023
100.469375271994
100.469636924965
100.470023811747
100.470135771021
100.470732972392
100.470950117311
100.471326612768
100.472418474255
100.471962973917
100.471864747064
100.472507196865
100.470910731145
100.471371759036
100.471007433938
100.470404134702
100.470220618219
100.470655666857
100.470286302234
100.469943539415
100.469663762672
100.469225608302
100.46906577585
100.468955875378
100.46876957752
100.468664693392
100.468508662692
100.468647019632
100.468869884636
100.468297090651
100.468072716783
100.467996041263
100.468648037036
100.468143708639
100.468219993852
100.466438519498
100.465520929708
100.464537897356
100.463704441735
100.462646868069
100.462575304501
100.462349487927
100.462302353377
100.4612696821
100.462111903961
100.462665871087
100.463055606265
100.462515590816
100.462842646543
100.46311227086
100.46349182047
100.46378228946
100.463361454407
100.462989794416
100.46348989377
100.463805652765
100.464226015421
100.4644628255
100.464043429244
100.464101414694
100.464233636696
100.464018256056
100.463687673019
100.463076172864
100.462676889772
100.462103883505
100.462486377018
100.462102371864
100.463601924253
100.465362168082
100.466064424081
100.466642165885
100.467438546916
100.468652658716
100.469558482574
100.469104586916
100.46794380821
100.464729469013
100.461744280267
100.457760304876
100.457457416165
100.457624831543
100.456056443235
100.456371230562
100.458630072333
100.461534784427
100.462734517796
100.461652315562
100.458293668232
100.455895216523
100.455528160762
100.455521398043
100.459351219505
100.457450964659
100.457568621821
100.460602223213
100.463730588093
100.467307290811
100.465158302902
100.462241962395
100.459790643729
100.462274429835
100.46464180858
100.468065520552
100.470515541352
100.468298934331
100.470933640846
100.470892702399
100.472735409741
100.472341033506
100.47279544702
100.470421420051
100.468546034226
100.466003760119
100.463569166095
100.463816376431
100.463952626506
100.464706901129
100.465509517951
100.463335181442
100.460513412538
100.460117871512
100.45935781494
100.459637939741
100.460105803693
100.459569688593
100.459520019394
100.460648884758
100.461805345369
100.463708452
100.463395712518
100.462590691405
100.460692358092
100.459349481667
100.458173989805
100.45865090512
100.458235065751
100.458110177084
100.458274591253
100.460781656528
100.460806627247
100.461642175374
100.461333504307
100.461069893433
100.46123434035
100.462019508847
100.462820717054
100.463558447157
100.464638442109
100.465740186153
100.465501799587
100.465000867643
100.464330311995
100.463930858291
100.464406886321
100.462990957577
100.462177070641
100.461126118434
100.461467715694
100.462288826032
100.462264168662
100.461371957136
100.462555372786
100.462565856944
100.461994263502
100.462753277427
100.463715447869
100.464516851458
100.465586136558
100.466095604923
100.466205353381
100.465566748105
100.464859517451
100.464008308164
100.463256097255
100.463358301986
100.463729227396
100.462653363885
100.461700708031
100.463446250417
100.463926381062
100.464408408317
100.464999178424
100.46601750085
100.465883981366
100.465292598369
100.464577406677
100.463891991393
100.464075446023
100.464239730798
100.463893192147
100.46451388381
100.465049094805
100.465992439753
100.466560858464
100.46653425132
100.466095741876
100.466225700878
100.467053721759
100.466974049429
100.466610369374
100.467091155335
100.467959002831
100.468035620449
100.46754487774
100.466152790718
100.466318765909
100.467993554128
100.468161722292
100.467799751811
100.466530708294
100.465637711338
100.466250697137
100.465146065161
100.464410889036
100.464335286594
100.466059301789
100.466241052066
100.465664535176
100.463800062441
100.462370336013
100.46137965662
100.462512367912
100.460058553273
100.458649904162
100.45723781043
100.45744718295
100.459042198179
100.459342345767
100.457749242543
100.459362631335
100.458460269951
100.460574028036
100.459794792849
100.459258246076
100.458952620084
100.459529389144
100.462265602873
100.462985544665
100.463617289923
100.4633672068
100.46322788271
100.463150459563
100.463360532406
100.463686949096
100.464237218461
100.464885933262
100.465473651762
100.466340712792
100.466589628385
100.467409495189
100.467279233773
100.46696529138
100.467300761755
100.4680675034
100.468096029395
100.467711733093
100.467768363409
100.468721019276
100.468908732899
100.468846667965
100.468998241718
100.468590998872
100.468420210667
100.469111258103
100.469309725694
100.469173011352
100.469048791668
100.468375920896
100.467985590225
100.467185458623
100.467903057633
100.467248549798
100.465343443485
100.463694188351
100.461880641767
100.460931608768
100.459130495452
100.461773044175
100.462328324473
100.461143683182
100.461088143747
100.461321234461
100.461621122692
100.46260672342
100.464046092507
100.465043368394
100.465471854895
100.464805844864
100.462748704359
100.465391033409
100.466933294646
100.491365933751
100.490631862705
100.455593428192
100.420779406735
100.380584084918
100.358434460831
100.373391691597
100.370718466068
100.368843896595
100.369119242915
100.369896419227
100.370725266877
100.371811145536
100.373271649786
100.374970671395
100.376622291202
100.377984448474
100.378964958675
100.379491013862
100.378163054391
100.376670072006
100.375016971875
100.373283737819
100.37163328683
100.370171484987
100.368957007846
100.367973708137
100.367165828821
100.366477897667
100.365893578954
100.365445511559
100.365229547013
100.365369463499
100.365991806616
100.367225399496
100.36890072283
100.370596663499
100.37175676651
100.372033045607
100.371936390388
100.372048799993
100.372056015742
100.372062085754
100.372072598133
100.372085300923
100.372101409271
100.372092585768
100.372307154909
100.372384539908
100.37245205014
100.372388428435
100.372338628302
100.372281138722
100.372119771957
100.372089129
100.372033179239
100.371999166887
100.372051333285
100.372006082219
100.37198365725
100.371979082644
100.371969827288
100.371914718184
100.371839751904
100.371791522558
100.371895606785
100.371897846672
100.371918220551
100.371945962004
100.371981073876
100.371934412225
100.372110977148
100.372184325485
100.372410530881
100.372336605901
100.372285478651
100.372156682023
100.372196804947
100.372082196305
100.372250409426
100.372119500548
100.372062684679
100.371883366239
100.371888285625
100.37186152594
100.37182412185
100.371779448963
100.371793518246
100.371695438749
100.371572638474
100.37153405722
100.371500106039
100.371552713584
100.371601225999
100.37165159618
100.371731260824
100.371714978197
100.371724115793
100.371777399182
100.37183375973
100.371844252489
100.372041447472
100.372074805613
100.372106635213
100.37209965788
100.371981774967
100.372072490873
100.371942372922
100.37200811082
100.371977888808
100.371788703961
100.371779019744
100.371735655187
100.371688340878
100.371642895841
100.371654529382
100.371562861361
100.371523045386
100.371436521457
100.371313367729
100.371419451606
100.37149210645
100.371503405371
100.371573645272
100.37156980865
100.371618918886
100.371660962604
100.371715736234
100.371697061078
100.37184615882
100.371832167875
100.371901579332
100.371915257668