/*--------------------------------*- C++ -*----------------------------------*\
| =========                 |                                                 |
| \\      /  F ield         | OpenFOAM: The Open Source CFD Toolbox           |
|  \\    /   O peration     | Version:  v1612+                                |
|   \\  /    A nd           | Web:      www.OpenFOAM.com                      |
|    \\/     M anipulation  |                                                 |
\*---------------------------------------------------------------------------*/
FoamFile
{
    version     2.0;
    format      ascii;
    class       volScalarField;
    location    "0.2";
    object      p;
}
// * * * * * * * * * * * * * * * * * * * * * * * * * * * * * * * * * * * * * //

dimensions      [0 2 -2 0 0 0 0];

internalField   nonuniform List<scalar> 
74874
(
100.138264158636
100.140648343299
100.141121712474
100.139711499393
100.145226695529
100.145813087505
100.142655228061
100.144263560742
100.146780584883
100.146854238357
100.144741772017
100.143205673241
100.146489356023
100.145939339263
100.146950714404
100.147134119887
100.146515490855
100.143376778839
100.140467771247
100.139898188968
100.141372602192
100.142689747132
100.141171202471
100.140821548727
100.146262784149
100.146398700257
100.141798009463
100.142063631011
100.143226375201
100.141405058081
100.141542564203
100.143040738492
100.142045528341
100.141745361189
100.146331576234
100.145833759255
100.140731695491
100.141147878903
100.142589900483
100.141010618319
100.13957956351
100.140105020163
100.143011544886
100.146157916162
100.146605454423
100.146363328603
100.140220276384
100.139479913595
100.139085858741
100.138519734272
100.137506972877
100.137512280017
100.136797337072
100.137144996227
100.137411969962
100.137968755664
100.13916950545
100.138657983581
100.137050372245
100.136763052812
100.136495994391
100.136042894656
100.136087251256
100.13662513812
100.136786132857
100.137121818721
100.138674808681
100.139208536021
100.138084331142
100.137567469623
100.137435438945
100.137097844077
100.137759562819
100.137769521647
100.138757821029
100.13937457418
100.139851753127
100.140630154821
100.140174325097
100.141744649881
100.14135312565
100.142495699307
100.14275506953
100.142539935508
100.14197279269
100.141491561639
100.140994764469
100.13783863335
100.136163607878
100.138194534747
100.137155916951
100.133463940411
100.134412885282
100.137024840048
100.136722429454
100.134978974661
100.133220621172
100.134802947152
100.136365653493
100.135716183034
100.135040150088
100.134624120631
100.132804019272
100.131739246593
100.132935948427
100.13288038381
100.131618833801
100.132757092009
100.134736944603
100.135219800753
100.13556626769
100.13657449837
100.135347461483
100.133700790112
100.135343616395
100.136982618567
100.137259412888
100.134588941747
100.133681432439
100.137565055947
100.138618893634
100.136679497871
100.138658654818
100.142220512641
100.142444038336
100.140032776318
100.139796677667
100.133377539218
100.141527998142
100.14112134263
100.135690841496
100.133216698269
100.13785458926
100.138227185518
100.132556342747
100.132790208605
100.135689572551
100.13409623672
100.132923674214
100.130928094036
100.133814868459
100.136390687901
100.13263008158
100.13207320656
100.134312067416
100.13068709131
100.128339280463
100.130523750799
100.130488922142
100.12827743111
100.13065949576
100.134423297302
100.13244556219
100.133293790694
100.13735572874
100.134798399274
100.131506432888
100.133339712883
100.134400415181
100.135975090328
100.132999919873
100.132719037595
100.138802451515
100.138325201509
100.133917406854
100.136947671475
100.14373894291
100.144617207679
100.134312972439
100.161448510758
100.159406510904
100.131987126462
100.131850268293
100.137177732051
100.126718783272
100.128252296067
100.139304789116
100.135678114298
100.132825703115
100.132755848751
100.137661837254
100.127235428597
100.128380533012
100.12863847512
100.128390707578
100.135214353616
100.131478641268
100.131442956148
100.135076798538
100.128519287219
100.128787632708
100.12855636436
100.127148208074
100.12559902218
100.128540220872
100.126296978689
100.117658321302
100.120261213436
100.092035250102
100.088147074084
100.088510529238
100.094280167403
100.12550662212
100.119824097063
100.10278046625
100.095790675705
100.089469947123
100.090224243026
100.095200659718
100.092183221212
100.093148958619
100.096445957145
100.096433326874
100.093100450133
100.092166716768
100.094836624593
100.0940172013
100.087812426715
100.086541895433
100.091070633058
100.089113230496
100.088944331572
100.087944055556
100.087969454389
100.094194592505
100.093399883489
100.093715297648
100.094100842639
100.089366797152
100.089939794456
100.0912877257
100.09126322543
100.089921603723
100.089156724593
100.090147857293
100.089373477977
100.087892308286
100.087925087459
100.094720641026
100.093782962797
100.093445063579
100.094212854841
100.095491278733
100.095434523747
100.094815578808
100.094994216277
100.095247979219
100.095280706508
100.094373826359
100.094091695256
100.094082842384
100.09426455939
100.093905055455
100.093675486702
100.093333233218
100.094257317799
100.0953676417
100.095677559656
100.094933211231
100.094828260883
100.093102941869
100.093391140891
100.093371825583
100.093166080633
100.093319685175
100.093318985913
100.093348166071
100.09321171916
100.094929429141
100.094903038309
100.095146220116
100.095067962926
100.094902925992
100.09474230128
100.093037693625
100.093223261443
100.093364215194
100.093079366548
100.090757535319
100.090809063845
100.090921601439
100.090949418195
100.090863926196
100.090980667609
100.090930797741
100.09098042975
100.090932092401
100.09091792568
100.093191682776
100.093264709616
100.093194871445
100.093198575781
100.09087392497
100.090723539668
100.090804693455
100.09081963524
100.088820217152
100.088808469538
100.088860297064
100.088919057566
100.088977751031
100.088902269753
100.088988606414
100.088956823986
100.089005323016
100.08897039034
100.088958869977
100.088980476517
100.090942429284
100.090847587336
100.088892567545
100.088910302615
100.08879950895
100.088871431284
100.087137243121
100.087096120342
100.087044264574
100.087075418976
100.087117892547
100.087195373277
100.087137895419
100.087217698317
100.087195951538
100.087243855804
100.087225201182
100.08722120573
100.087231929056
100.087148052587
100.087163664864
100.087085748393
100.085284514364
100.085287674008
100.085245418252
100.085144173138
100.085161046254
100.085205239418
100.085307660407
100.085276509421
100.085366834224
100.085345622563
100.085414814606
100.085428127372
100.08543532151
100.085432692864
100.085336128856
100.085349804796
100.083272739674
100.08319782424
100.083166962124
100.083115351088
100.082868134409
100.082878412168
100.083024107509
100.083133124677
100.083109652349
100.083226591995
100.083225484796
100.083329700362
100.083383307556
100.083439792458
100.083427325535
100.083314736416
100.080752269614
100.080672550928
100.08055967137
100.080535400785
100.080474674881
100.079876827531
100.079840385233
100.080264525733
100.080363728104
100.080375005985
100.080523766645
100.080588730691
100.080779446853
100.080843059958
100.0809251012
100.080871380827
100.077043672819
100.076873294619
100.076876576016
100.076669754435
100.076477409981
100.076678146738
100.075439566773
100.075291723169
100.076216330243
100.076092007872
100.076248411841
100.076508587533
100.07654534613
100.076905684669
100.077086030647
100.077146099199
100.071062609898
100.070913019194
100.0706177453
100.070748255562
100.07061459025
100.069736835071
100.070623249905
100.068094174713
100.067961831688
100.069915471612
100.069009743732
100.069719452659
100.069977382241
100.069967380925
100.070498859065
100.070887701548
100.048570008815
100.048794035354
100.045539331976
100.04526215529
100.048916008057
100.04951953459
100.044771425043
100.045245468824
100.045149734258
100.045042759729
100.044584783106
100.043469321532
100.048296245769
100.047947322242
100.044676061902
100.045097853013
100.050865369242
100.053698035198
100.053798658651
100.051674896297
100.051461237554
100.053161451641
100.055448344013
100.049261164064
100.036070543682
100.078453456206
100.114095854992
100.113748975562
100.07727010406
100.044478216874
100.044721142811
100.183329384536
100.30784504833
100.233326848934
100.231329723661
100.184506354264
100.169128015943
100.154510233473
100.048171594954
100.054677614091
100.052844093179
100.050808780011
100.160148115991
100.160763136428
100.199556394368
100.138546421398
100.139364112835
100.201053860383
100.162142091571
100.16092753082
100.197341255035
100.13435126201
100.13223808172
100.188378934614
100.154950963248
100.172130569002
100.187145938215
100.307165391394
100.377198970874
100.355558931047
100.3522349964
100.370965747767
100.349296068193
100.302852042826
100.468271024575
100.494505445086
100.501572228546
100.535470151816
100.605612878282
100.609837362149
100.530604416977
100.463618796156
100.397192911521
100.359265049091
100.383277994526
100.381702168247
100.378579684861
100.378556388321
100.3793277936
100.380218564584
100.381484684802
100.383411281614
100.38599592921
100.389047317127
100.392222862791
100.394988317719
100.396710212401
100.39544867678
100.39366181857
100.391537215801
100.389105240819
100.386459993814
100.383600646203
100.380569197325
100.377560632494
100.37490103875
100.373058160105
100.372558777039
100.373445815954
100.375107351025
100.376396054778
100.376643498836
100.376470182106
100.376439949011
100.37641518773
100.376339495392
100.376210642961
100.376023218016
100.375818829228
100.375722551043
100.375786898457
100.376210246923
100.376158714316
100.376110916408
100.375911024228
100.375717101967
100.375516658678
100.375596289268
100.375808570798
100.376018158313
100.37616834162
100.376262011375
100.376292641046
100.37630889057
100.376447597612
100.376322477566
100.375203564314
100.373557280743
100.372535149213
100.372762721104
100.374316018899
100.376755754027
100.379603574865
100.382549158021
100.38538258827
100.387938943832
100.390174161121
100.392077911361
100.393689773135
100.394835468053
100.395390354882
100.397328130768
100.398626834297
100.397969470715
100.39663344459
100.394731384134
100.392439767321
100.389855863363
100.387089570245
100.384147826941
100.38104694193
100.377973701828
100.375241195876
100.373288565828
100.372659263151
100.373465628523
100.375131572392
100.376518390031
100.3768347268
100.376635360344
100.37658693101
100.376562662628
100.376497526878
100.376383568146
100.376214960562
100.376023826929
100.375909573077
100.375923804693
100.376316544122
100.376261573339
100.37629539982
100.376351776149
100.376374679026
100.376429544557
100.3764184109
100.376497772775
100.37649825352
100.376587661253
100.376606563583
100.376749145617
100.37668199547
100.376642703205
100.37664258853
100.376571350326
100.376626265022
100.376493782617
100.376658523838
100.376716332571
100.37656302612
100.376532356217
100.376452626759
100.376449513401
100.376370760509
100.376383784213
100.37632777239
100.376301453547
100.376244670511
100.376180320327
100.376245124724
100.376271583201
100.376323458633
100.376319284011
100.376394568942
100.376410147136
100.376478313386
100.376499170039
100.376613886513
100.376502153858
100.376522769675
100.376467396637
100.376478382032
100.376396900002
100.376367987337
100.376444516367
100.376401846873
100.37634837062
100.376343266328
100.376273373463
100.376270037642
100.376218469206
100.376190646007
100.376127512985
100.376025746227
100.376121374762
100.376154220686
100.376206611484
100.376226718937
100.376283936492
100.376334270956
100.376337796057
100.376385590201
100.376419985028
100.376433201961
100.376483276714
100.376534679403
100.376596868922
100.376555729951
100.376654811176
100.376675866135
100.376823202021
100.376761112677
100.37671869651
100.376540151382
100.376128652806
100.375682552369
100.375608581127
100.375604963025
100.375573174667
100.375610442704
100.375813126882
100.375927204319
100.375997991043
100.376027294506
100.376029990811
100.376485108813
100.376475338218
100.376445097174
100.376465099058
100.376502333085
100.376450800734
100.37620247436
100.375920255152
100.37593191878
100.375851887371
100.376071006178
100.376010686782
100.376187482303
100.376414662735
100.376377341527
100.376280497018
100.376345514142
100.376390831163
100.376433100617
100.376476659432
100.376527365195
100.376567338012
100.37662512587
100.376676198503
100.376710180843
100.376847409435
100.376761835343
100.376714860996
100.37647451302
100.37616863835
100.375780458213
100.375152706633
100.374605170049
100.374120156533
100.373993600729
100.373791569701
100.373934540905
100.374266366283
100.374522615605
100.375085444126
100.374930643572
100.374729796466
100.374215817718
100.374152726353
100.374174578471
100.37408059451
100.37406796936
100.374475612373
100.374752334011
100.374869997429
100.374864862888
100.374705580469
100.374253832972
100.374684657807
100.375270719086
100.375281100555
100.375915610342
100.376140317471
100.376211844319
100.37629819695
100.376269919037
100.376326311629
100.376370222039
100.376426681526
100.376427160968
100.376487106832
100.376471875713
100.376556931545
100.376608993825
100.376608028662
100.37669957111
100.376757700665
100.376786475046
100.376921750469
100.37690346148
100.376685388472
100.376642249339
100.376740414299
100.376811702431
100.376850730844
100.376898366572
100.376730029249
100.376706974827
100.376658724963
100.376708030934
100.376801005811
100.376822689306
100.376947186929
100.376957096046
100.376786749821
100.376689263284
100.376183224445
100.375932890241
100.375889675866
100.375327265937
100.374773712625
100.374304846722
100.373665799687
100.373468000257
100.373179344228
100.372928258237
100.372699868319
100.372520437419
100.372231165792
100.372008351907
100.371959793291
100.372339191248
100.372653897394
100.372874699264
100.372991624524
100.373224815447
100.373422408819
100.373079455736
100.373285217646
100.372499880477
100.373429633865
100.375332797873
100.376298504682
100.376315970251
100.376406881223
100.376457044095
100.376478172292
100.376536116485
100.376522270576
100.376576773991
100.37666233651
100.376712559817
100.376769345873
100.37676429893
100.376857014239
100.376880927768
100.376993489953
100.376994832895
100.376829180558
100.376728275899
100.376281498807
100.376020998802
100.375531303938
100.375068801535
100.374671220998
100.374473953969
100.37388200491
100.373722077984
100.373572315288
100.373507587815
100.373559541173
100.373268488353
100.372983209118
100.372777117867
100.372352589729
100.37255666981
100.37291104768
100.373215211906
100.373292987207
100.372980867359
100.37265721594
100.372218178109
100.372373273022
100.371867156336
100.371433303496
100.371108107107
100.370841325981
100.370602290899
100.370917425572
100.371214195299
100.371539232714
100.37191236927
100.371578174612
100.371591398807
100.371571117041
100.371584211241
100.371394624432
100.372998308055
100.375208473012
100.376192515063
100.376211590251
100.376269745888
100.376357885139
100.376405726194
100.376405199014
100.376445719084
100.376509960304
100.376511914907
100.376531583881
100.37659351041
100.37664346558
100.37662798358
100.376679735916
100.376731282291
100.376818614491
100.37681499421
100.376902697198
100.376918777032
100.377024146941
100.377002795994
100.376884695141
100.376738600882
100.376371203811
100.376090353684
100.375599074912
100.375146373062
100.37480447555
100.374270630203
100.374168527931
100.373980127099
100.373844586554
100.373783483653
100.373846766185
100.373719423586
100.373933536114
100.373666781274
100.373388892567
100.373098763593
100.37277848284
100.372437821396
100.372033630398
100.371635005878
100.37101842538
100.371315425389
100.371839842876
100.372315731657
100.372539863744
100.372828994261
100.373139065012
100.373432440455
100.373448732443
100.373313282126
100.37272950662
100.371527465138
100.370492927857
100.370749104569
100.369848616735
100.369268477789
100.367794861125
100.368629614604
100.369883910668
100.370891503942
100.371805054894
100.371603282584
100.371363237031
100.370636743024
100.369599668005
100.368633313459
100.366821208746
100.365485125422
100.364559814801
100.359378243966
100.357297937428
100.362057253463
100.363847262713
100.365211393192
100.36688864992
100.367591702428
100.365265566717
100.363407766676
100.360489067506
100.359210905092
100.357068998448
100.357102293618
100.35966019736
100.363018145511
100.365316004496
100.367058599344
100.368538878341
100.368735283825
100.370002833562
100.371293711622
100.372176962903
100.372990982879
100.373638003287
100.372503284652
100.372374918057
100.372089220358
100.374507230656
100.374197923366
100.373816882689
100.373348343421
100.372993150043
100.372377019569
100.371375648109
100.369394947866
100.367954674735
100.367486630195
100.369741432051
100.369387879567
100.365711193422
100.362918059893
100.36429810288
100.351768644944
100.353624753355
100.347977855903
100.353674238731
100.35528120368
100.364578407008
100.37097720884
100.374473144344
100.375001962188
100.375554528436
100.375384364831
100.375064959314
100.375107770552
100.375162153359
100.375174337345
100.375238591547
100.375093112146
100.374684950631
100.374590711088
100.374661789352
100.37484612148
100.375010677729
100.375538312017
100.375529478261
100.375652303836
100.375749971484
100.375782151797
100.375871837203
100.375815056765
100.375878281891
100.375901155606
100.375977082505
100.375946613353
100.37602530507
100.376010248986
100.375606217215
100.375349323228
100.375713509149
100.375739645697
100.375774464436
100.375927041345
100.375846395752
100.375899961507
100.376037893842
100.37592457775
100.37595389487
100.375839638518
100.375889684695
100.375883107943
100.375796274578
100.375824488765
100.375760551976
100.375730272233
100.375648423879
100.375616426671
100.375714293426
100.375739149237
100.375798309465
100.375779777127
100.375855198827
100.37581869718
100.375885692249
100.375843713849
100.375957520753
100.375944947593
100.375845909502
100.375882629407
100.375828665382
100.375803259711
100.375913661473
100.375825044794
100.3755451374
100.375129692628
100.375654031725
100.375527619269
100.375888824027
100.375687242196
100.375864066426
100.375777280236
100.375820779895
100.375726089059
100.375771119746
100.375790107259
100.375744397844
100.375757243289
100.375682196475
100.375685580483
100.375628651141
100.375521904191
100.375505933692
100.375342198946
100.375374478412
100.375391747109
100.375529738203
100.375614048308
100.375648788919
100.375721323961
100.375675831777
100.375767328904
100.375749696159
100.375709321659
100.375772682259
100.375723036371
100.375749546654
100.375664856408
100.375843009493
100.375714686111
100.375771520606
100.375726676469
100.375689605395
100.37571930538
100.375654911213
100.375273642449
100.374619441575
100.375308765503
100.375222758431
100.375657584211
100.375529006289
100.375689206326
100.375679970949
100.375711084096
100.375618090738
100.375701176652
100.37568709677
100.375657741031
100.375679262215
100.375691164709
100.375615825326
100.375607043264
100.375535365353
100.375435906148
100.375424638604
100.375540138402
100.375565134315
100.375669483361
100.375609170226
100.3756538705
100.375665330197
100.375673063053
100.375691731096
100.375710191638
100.375730672349
100.375157322739
100.375527149863
100.375547717464
100.37568505485
100.375776354015
100.375831848287
100.375842124681
100.375906372933
100.375922019917
100.375959447703
100.376033866016
100.376018406594
100.376014866448
100.376039570844
100.376032917893
100.37613489683
100.376018390415
100.376063422121
100.376089561337
100.376100221228
100.376204464787
100.376045407196
100.376015758576
100.376167503008
100.376065260915
100.375776653403
100.375419505899
100.374711077673
100.373851993929
100.372932220925
100.373526978223
100.373950644921
100.374121491087
100.374317133119
100.374992641045
100.374947257898
100.374885616917
100.374661387891
100.374335770284
100.374798851294
100.375146411183
100.375876242422
100.375753941152
100.375812778096
100.3758063975
100.375839704544
100.375868744596
100.375872492567
100.375910952185
100.375955416498
100.375961981319
100.37603191202
100.376016556449
100.376093902831
100.37619299888
100.376173143426
100.376283814923
100.376145221396
100.376076158654
100.37592774796
100.37541199936
100.374788847438
100.374780399325
100.37520268507
100.375251993446
100.37588281332
100.375589022565
100.375782957935
100.375974139338
100.375914545476
100.3759958424
100.375940378563
100.375987333867
100.37599992477
100.37608894866
100.376086216059
100.376108139144
100.376228559559
100.376218893529
100.376318910935
100.376279056599
100.376222992973
100.376316444763
100.376180657383
100.376218534786
100.376261265921
100.376282833564
100.376206554045
100.376157016903
100.376141231567
100.3760682407
100.376064596227
100.375997752028
100.37592005135
100.375953096742
100.375862825838
100.375661019016
100.375730463929
100.375662282707
100.375614749551
100.375585804287
100.375541174674
100.3757172758
100.375813286057
100.375848670502
100.375915466557
100.375952370285
100.376002444245
100.376059625092
100.376026784579
100.376135654533
100.376159220975
100.376207589336
100.376250401032
100.376295995278
100.376331501835
100.376387873214
100.376433502511
100.376489778304
100.376540808765
100.376596919011
100.37664907613
100.376704089252
100.376756186475
100.376811515584
100.376784027543
100.376867003927
100.376859863462
100.376947104926
100.376965384022
100.377069402822
100.377023193045
100.376958259482
100.376917320247
100.376807216148
100.376559110518
100.376226930163
100.375747109479
100.375315291124
100.375000323438
100.374482869912
100.374401670441
100.37425611946
100.374249149729
100.37427095451
100.374037586842
100.373930200085
100.374142138905
100.374090328266
100.374119375508
100.37414337086
100.373911242752
100.373681471198
100.373443488762
100.373176406221
100.372872187439
100.372521877011
100.372755038068
100.373123045853
100.373387480983
100.373639656896
100.373880185356
100.373866623356
100.373607725223
100.37334393764
100.373062318276
100.372691297118
100.372219803026
100.37256251494
100.372097825065
100.371610312321
100.371181927312
100.370779519396
100.370008022953
100.370450707715
100.371068989617
100.37136431897
100.371813345651
100.371792207724
100.37165810384
100.371213272968
100.370844989666
100.369820651763
100.368878484963
100.369301043765
100.373422863176
100.375455892964
100.375612843982
100.375793857396
100.376078573279
100.376426868981
100.376370938618
100.376470171483
100.376519871465
100.376564126015
100.376583988782
100.376636857697
100.376696081403
100.376745442369
100.376798930802
100.376844860449
100.376834095768
100.376914292256
100.376912608844
100.376993505012
100.377006507153
100.377088474711
100.377026904902
100.376976126503
100.376867494287
100.37658091855
100.376326399127
100.375874625714
100.375500293281
100.375187738748
100.374713142708
100.374597547645
100.374299448155
100.374453763231
100.374265167127
100.374404733131
100.3744477339
100.374552845522
100.374333861326
100.374299032116
100.374369290995
100.374372454948
100.374345662338
100.374378434652
100.374135811869
100.373918857733
100.373683363175
100.373412292998
100.373127383006
100.372805099064
100.3723938851
100.371990389267
100.371680873183
100.372008041575
100.372450276112
100.372713163139
100.373067467616
100.37335614711
100.373617285176
100.373858276074
100.374097500157
100.374094910802
100.374050883357
100.373785276345
100.374199867072
100.373725016139
100.373112550316
100.373573838308
100.372900413395
100.372652002853
100.372179686127
100.374793597353
100.376189760225
100.376102209543
100.37592222149
100.375712185669
100.375442731809
100.375040635392
100.37451226286
100.373748670044
100.372353872169
100.374177298354
100.373830327305
100.372948207466
100.370773028972
100.368127851541
100.366831723842
100.364421651765
100.365630209161
100.35583826529
100.354651442636
100.347838581324
100.352316098677
100.352552212157
100.35434127636
100.355635268642
100.35504910082
100.353267082051
100.354578552939
100.354201632859
100.35465273478
100.355304697725
100.355135723319
100.354216328888
100.354346320052
100.359594476703
100.353021218807
100.35213485405
100.354163131771
100.353664500254
100.352676094272
100.353966514583
100.354012861291
100.354613442721
100.354344850958
100.354637208616
100.354734812704
100.357617069689
100.358104901969
100.356117787615
100.356950016542
100.360002262312
100.361113395663
100.36389407283
100.366200176829
100.367403976944
100.365868351339
100.367320655705
100.368849009707
100.369236343881
100.370794595938
100.369740117957
100.371022362813
100.37199118184
100.372817090672
100.373447343485
100.374002014419
100.374156873609
100.374228471836
100.373950028563
100.373037193817
100.37337298821
100.372937882854
100.375096370541
100.376226513133
100.376600976875
100.376529869514
100.376432412504
100.376293441934
100.376122058875
100.375913735362
100.375647304617
100.375300857057
100.374843343163
100.375521924135
100.376128089858
100.375800033118
100.375411562787
100.375094296487
100.375780701783
100.375245325497
100.375537220453
100.375580270852
100.375313783386
100.375112387501
100.375125533874
100.375314459876
100.375367223699
100.375571395114
100.375808103374
100.375986777487
100.376106183171
100.376150331139
100.376159770413
100.37625918994
100.376287076776
100.375436978112
100.373857310664
100.372659699494
100.372521979559
100.373620489677
100.375702668069
100.3783235042
100.38117704523
100.384012914434
100.386488869255
100.38848539094
100.390137697962
100.391531535606
100.392520037091
100.392996544967
100.39294826963
100.395354034711
100.397304691224
100.39861429507
100.399202187572
100.399207892545
100.398529135274
100.397151376541
100.395183568326
100.392801718147
100.390121516095
100.387268612478
100.384279526258
100.381175338703
100.378115705195
100.37539017727
100.373427095335
100.372780856724
100.373582968329
100.375262725717
100.376678494767
100.377002352924
100.376783665027
100.376724802835
100.376699180393
100.376640047842
100.376536778315
100.376383592384
100.376206139409
100.376088110105
100.37625269346
100.376234468852
100.37654274147
100.376488122941
100.376427991788
100.376416714764
100.376553809289
100.376616786828
100.3766188891
100.37667169739
100.37668989407
100.376742001931
100.376796165677
100.376844797524
100.3768902961
100.376883123313
100.376960615142
100.376959335824
100.377038912759
100.377043301194
100.377116165177
100.377065896982
100.377017093617
100.376925883575
100.37665462364
100.376425391411
100.375903567361
100.375675715669
100.375434390725
100.375262417222
100.374997350331
100.374838626715
100.374576909171
100.374656944261
100.374593739005
100.37465499215
100.37472714162
100.374626932901
100.374784499895
100.374624834112
100.374403261753
100.374566167904
100.374563958798
100.374581762252
100.37463184828
100.374442248428
100.374398059707
100.37407574612
100.373826130146
100.373580152131
100.373287332186
100.372979011081
100.372597455017
100.372397895343
100.37259259311
100.372981921417
100.373287796133
100.373583925544
100.373823771596
100.374065826949
100.374328988019
100.374283598639
100.374362732309
100.374355565484
100.374278461524
100.374433297037
100.374354211398
100.374580398327
100.374131966465
100.374480310458
100.374114357693
100.373484354752
100.373619184427
100.373704621218
100.373227454982
100.3752474413
100.376187693693
100.376637930239
100.376925788148
100.377168885586
100.377067808215
100.377003578772
100.376926993586
100.376837745915
100.376721861115
100.376592148472
100.376435993696
100.376253221479
100.376582795896
100.376705807741
100.376603537992
100.37629387278
100.376131789115
100.375876612031
100.37578179113
100.375440199499
100.374944287536
100.374506919299
100.375021367456
100.375390648794
100.374548914073
100.374205354648
100.37328910044
100.372783515889
100.371215260829
100.368406082272
100.367343956629
100.366540072995
100.365212598621
100.351861445175
100.357625822338
100.357653289286
100.355279400894
100.357191229725
100.359470072122
100.361142640337
100.360379304156
100.359220503226
100.360292825177
100.360792795356
100.360869027913
100.361010520056
100.361739206739
100.360757254634
100.362640994323
100.365083286603
100.360557417563
100.362012122332
100.362559241046
100.357994824386
100.355864939339
100.352612524311
100.359128664058
100.365110211815
100.371140359048
100.37427475036
100.374951902983
100.375219036171
100.375403416764
100.375501703437
100.375550883367
100.375556063877
100.375626511973
100.375608235479
100.375654881821
100.375687372472
100.375634369807
100.375665988336
100.375644843225
100.375516314896
100.37569788433
100.375663220814
100.375643722366
100.375628694206
100.375526107386
100.375150462096
100.375602115762
100.375505643278
100.375688101196
100.375637163683
100.375639274546
100.375687935457
100.37569246032
100.37560251249
100.375651023428
100.375668121684
100.375570362478
100.375608686045
100.375633841444
100.375546381304
100.375531903732
100.375450342141
100.375329445295
100.375108017267
100.375023404586
100.374558599512
100.374974372111
100.374960883051
100.375186982121
100.375354648286
100.375488427511
100.375530908666
100.375571406629
100.375635698657
100.375609242113
100.375692572933
100.37562666445
100.375644388898
100.37567412853
100.37567100741
100.375681007981
100.375710232334
100.375416206485
100.375563436932
100.375575604824
100.375413052734
100.374503179075
100.374945019139
100.375101420056
100.375501682624
100.375605940651
100.375609038404
100.375496148139
100.374607128063
100.375184617499
100.375299512176
100.375533432525
100.375618449725
100.375624140338
100.375555785938
100.375555423273
100.375380787016
100.374697016036
100.375126768328
100.375646261115
100.375683556286
100.375611211183
100.375252774506
100.375427512672
100.375511268512
100.375626031298
100.375726081024
100.375696515524
100.375708675984
100.375737683703
100.375734902053