/*--------------------------------*- C++ -*----------------------------------*\
| =========                 |                                                 |
| \\      /  F ield         | OpenFOAM: The Open Source CFD Toolbox           |
|  \\    /   O peration     | Version:  v1612+                                |
|   \\  /    A nd           | Web:      www.OpenFOAM.com                      |
|    \\/     M anipulation  |                                                 |
\*---------------------------------------------------------------------------*/
FoamFile
{
    version     2.0;
    format      ascii;
    class       volScalarField;
    location    "1.2";
    object      p;
}
// * * * * * * * * * * * * * * * * * * * * * * * * * * * * * * * * * * * * * //

dimensions      [0 2 -2 0 0 0 0];

internalField   nonuniform List<scalar> 
81489
(
100.001937664723
100.006761684808
99.9999727254633
100.004241299939
100.009556489739
100.006230321878
100.00585257896
100.005904534842
100.006074574659
100.005690448117
100.006295577701
100.009381812414
100.013226158397
100.012060719718
100.010262935757
100.011267580121
100.00841521103
100.00603197389
100.006050263656
100.008429349272
100.011242290704
100.010220101647
100.012027899824
100.013182250165
100.009361545336
100.006266789265
100.005661409594
100.00605144358
100.005879152856
100.0058231687
100.006198446984
100.00953785563
100.013348903743
100.012196182031
100.010257597341
100.011269407213
100.008457605012
100.006097492758
100.006080470013
100.008443879578
100.011292163884
100.010303521693
100.012234082205
100.013386419652
100.00654466852
100.005833115527
100.001556246657
100.002067625207
100.003424658454
100.003843971232
100.003871912863
100.003447950479
100.002049448104
100.001522305284
100.005804520194
100.006518011299
100.004240651329
100.003173950447
100.003874341644
100.004112218697
100.004065635154
100.00373932997
100.003400236133
100.004375423645
100.006507749137
100.00578097539
100.001496695509
100.002007013639
100.003403241431
100.003827885725
100.003797857388
100.003372577013
100.00202900373
100.001533519513
100.005811084376
100.006532262199
100.004376388093
100.003412011927
100.003753844453
100.004081258881
100.004128412362
100.003887921766
100.003187546082
99.9999492958325
100.002081324524
100.001989843082
99.9906851697983
99.9930808347877
99.9932154211544
100.00352447867
99.9981457543162
99.9962311251895
99.9986519124417
100.000808533443
100.000838930417
99.9986553974572
99.9961829134649
99.9981063628799
100.00349614388
100.003505657392
99.9999788068252
99.9999402612992
100.002077864649
100.000922553006
100.000898838071
100.002126854259
100.00002282439
99.9998641837712
100.003456512711
100.003504342955
99.9980919729337
99.9961345289603
99.9986054352769
100.000791963505
100.000763714401
99.9985927122344
99.996177765584
99.9981293369943
100.003532059558
100.003488961262
99.9998605217769
100.00003349866
100.002131587225
100.000914120587
100.000938682068
99.9980004562268
99.9979518603891
99.9907281651509
99.9609271496903
99.9608477668267
99.9552507486483
99.956224708607
99.9613913549993
99.9917729186439
99.9988023368326
99.9981372640074
99.9981334236098
99.9987291647531
100.001360994483
99.9932162208654
99.9930459592425
100.006775797722
100.001985631922
99.997976311808
99.9979301473331
100.001708231348
100.006355740313
99.9930352649153
99.9932176296048
99.9917143032992
99.9917512715316
99.9932202665028
99.9930705237461
99.9553833884718
99.9551594468107
99.9566669545821
99.9566555925596
99.9551430897036
99.9556720978818
99.9564998958258
99.9565224188942
99.9614415218206
99.9917378680992
99.9858365038259
99.9691278145772
99.9626975947053
99.9625383708977
99.9600845453644
99.9611415131741
99.9556946461043
99.9563273476819
99.9553092411097
99.9608788821189
99.9906610773591
99.9907039894254
99.9609588324931
99.9554395164764
99.9564021039733
99.9614793174132
99.9614295757126
99.9563019415139
99.9556858513905
99.9611382349607
99.9610068103109
99.9602822799453
99.9602929624167
99.9610378504614
99.961158017975
99.9600874454927
99.9614075257665
99.961408121662
99.9620380128866
99.9620017994634
99.9610413712239
99.9551695165509
99.9566893252021
99.9567026830284
99.9551890100033
99.9557082429002
99.9565514826243
99.9565282512422
99.9600902943747
99.9613976052396
99.962026086035
99.961972738177
99.9614635254455
99.9614691906423
99.9619950870298
99.9620388990396
99.9599521314523
99.9597753666941
99.9597844627818
99.9599735718003
99.9599220141946
99.9597905664942
99.9614844507435
99.9603103822762
99.9602995846077
99.9610116792366
99.9611202522422
99.960087780739
99.9613967254588
99.9597661651114
99.9597602466032
99.9599445762814
99.9598877662299
99.9597610574436
99.9597623604108
99.9599001282873
99.9575230795361
99.9575659772799
99.9575042234597
99.9575185222874
99.9576015719642
99.9575722893959
99.9575361430601
99.9575300833966
99.9597882291505
99.9614779715717
99.9619820388456
99.9620175109402
99.9599522608424
99.957568930797
99.9574864983409
99.9574755447151
99.9575426686257
99.957513626147
99.9574778317752
99.9574797868232
99.95552642449
99.9555728511786
99.9556036943412
99.9555641891655
99.9555870165926
99.9556648104246
99.9556675634941
99.9556289477207
99.9556146407533
99.9556211246349
99.9575541732786
99.9599115597695
99.9604734591108
99.9578447838515
99.9558818972587
99.9556073509274
99.955526099069
99.9555103784661
99.955560184297
99.9555505997023
99.9555178332846
99.9537022673232
99.9537212725224
99.9537755145762
99.9538030410156
99.9538041146202
99.9538436243403
99.9539135598567
99.9539349981678
99.9539044457042
99.953878912833
99.9538559638301
99.9538172217265
99.9537301012365
99.9537060735077
99.9537244587603
99.953721253983
99.9517087091268
99.9517001444884
99.9517305082968
99.9518031123603
99.9518593202174
99.9518931027726
99.9519656071769
99.9520443764584
99.9520810974512
99.9520620406803
99.9520205520243
99.9519590451034
99.951878944138
99.9517573393732
99.9517256030977
99.9517125761459
99.9492754802719
99.9492496870834
99.9492116865674
99.9492605424066
99.9493877766467
99.9494833665822
99.9495437797384
99.9496794702636
99.9498462714511
99.9498848967532
99.9498467763432
99.9497817796666
99.9496759421145
99.9495159409606
99.9492958320762
99.9492639245769
99.9458062627058
99.9458459409395
99.9458021749392
99.9457402527534
99.9458050314549
99.9459807684365
99.9461555384566
99.9462647010237
99.9465426165469
99.9467954877172
99.94686885726
99.9468008488067
99.9466793491801
99.9465139835582
99.9461874880322
99.945865866518
99.940642017572
99.9404656762951
99.9401905342991
99.9400437416038
99.9402505734234
99.940462110499
99.9404889884124
99.9408022928764
99.9412546496663
99.9417123687127
99.9418134861501
99.9420183989809
99.9421967027099
99.94195152815
99.9414275384575
99.9407268187633
99.9260881411711
99.9268693914219
99.9261755830952
99.9245400915187
99.9244830283161
99.9265266100355
99.9269188197992
99.9254153027875
99.925868085931
99.9276180413854
99.9282918385248
99.9273418144338
99.9278087566279
99.929342497972
99.9288586019759
99.9269980368415
99.9411933258965
99.9402112606945
99.9359188424041
99.9345037155008
99.9373899210273
99.9373627028836
99.9344248085612
99.935168725976
99.938923278857
99.939711090329
99.9370328134303
99.9381180005034
99.942333005732
99.9428471724315
99.9395747076646
99.9389608960454
100.000045251017
100.053239679744
100.007950269397
100.00495835456
100.04630929108
99.9924960408189
99.9901922674064
100.043277347524
100.000795001906
100.002188927409
100.045960087194
100.078810260465
100.07895098017
100.047044693006
99.9934722190935
99.9926992605664
100.117075307119
100.216770103206
100.173796403405
100.174320802363
100.147364684291
100.141850049772
100.140404301491
100.004246797011
100.047705250363
100.0792217861
99.9945924179114
99.9959521119042
100.050515465276
100.008141703662
100.010413063515
100.055117097592
100.000881893513
100.088832918417
100.088170512299
100.184380982952
100.154083057072
100.145425086978
100.141573924747
100.144163919077
100.167745243441
100.167098925966
100.141385985177
100.137029212102
100.138954753391
100.145643034056
100.236882378969
100.277820152809
100.25660412859
100.257057090678
100.278860065749
100.268586472049
100.239407182119
100.334965564949
100.370413181155
100.343049500288
100.333442867771
100.333646143015
100.341318235662
100.277280457693
100.237901368536
100.268694477812
100.335130922527
100.36969390744
100.390487387073
100.397543756414
100.399568402965
100.402946725059
100.403449626306
100.402126817063
100.400775363976
100.399849176046
100.399294680142
100.399009160364
100.398919067157
100.399026393138
100.399303821948
100.399734426632
100.400362656245
100.401272222281
100.402738759861
100.405293295801
100.410157927089
100.419839184265
100.438898878175
100.465134726017
100.505630461541
100.500243207935
100.43432931537
100.375326747094
100.315749204127
100.282447496365
100.304010832859
100.303530883089
100.301078170141
100.30132916059
100.302427852993
100.303540222568
100.304803803638
100.306443640929
100.308418053524
100.310512261361
100.312443776369
100.313930825309
100.314718749288
100.313586983727
100.312121682715
100.310401840896
100.308581585258
100.306738342101
100.304891774836
100.303108062235
100.30149445858
100.300158006125
100.299129332104
100.298368191979
100.297838371776
100.297472783734
100.297225771143
100.297060620778
100.296952231242
100.296902579734
100.296928013432
100.297086488035
100.297461639775
100.298157421869
100.299464540389
100.301059098705
100.301893862918
100.302131843008
100.302105579318
100.302148644724
100.302140279783
100.302231247537
100.302183891073
100.302200234316
100.302165429977
100.302099107651
100.30191940882
100.301691074519
100.301693298271
100.301715187187
100.302048680404
100.302011897059
100.301949598855
100.30210893714
100.302167970149
100.302189770881
100.302182447971
100.302223912707
100.30214189053
100.302138832236
100.302107689086
100.302115576135
100.301898323757
100.301517660056
100.302026741901
100.302124751541
100.302122262016
100.302139612234
100.302148731479
100.302219833416
100.302181084696
100.302179882877
100.302159522917
100.302093524
100.302133586302
100.301980973308
100.302089890126
100.302279337999
100.302259848839
100.302236449109
100.302164694327
100.302180129994
100.302187772092
100.302218819201
100.30215814343
100.302143833604
100.302125190516
100.302129281403
100.301951493259
100.301817847834
100.302083312124
100.302155575294
100.302154966711
100.302162537553
100.302171454138
100.302218298279
100.302222427066
100.302205844333
100.302228578879
100.302193474757
100.302320755002
100.302405445452
100.302426443055
100.302174342499
100.301956134078
100.302239797712
100.302518048013
100.302436935689
100.302591731426
100.30256603317
100.302427071651
100.30224404736
100.302289471497
100.302248111235
100.302185092153
100.30216903266
100.302168071224
100.302182633014
100.302105933555
100.302172510919
100.301807492924
100.301357411
100.30198082223
100.302152852811
100.302143153742
100.302200503864
100.302232882072
100.302199954407
100.302256046104
100.302306594177
100.302311027855
100.302312461393
100.302311476368
100.302539998456
100.302696281397
100.302726654136
100.302633620885
100.302771992685
100.302950850406
100.302862693614
100.302803675724
100.302639238715
100.302398663983
100.302360070718
100.302359789119
100.302310395502
100.30226599079
100.302229356753
100.302245844492
100.302271259881
100.302183414902
100.302224447528
100.301954639959
100.301839951631
100.302153818016
100.302270590732
100.302241939803
100.30231940888
100.30229545721
100.302349642871
100.302365312432
100.302423739144
100.302474281553
100.302537470755
100.302770645228
100.302988107753
100.302925283718
100.303004399219
100.302836520456
100.302569157129
100.302593739166
100.302888490074
100.303114031661
100.303188649835
100.303083962651
100.302900766809
100.303163616529
100.303239935766
100.303354238923
100.303377182032
100.303412678279
100.303309333478
100.303187810058
100.302962451787
100.302642586321
100.302604795715
100.302518268271
100.302455595002
100.302416016946
100.302436633457
100.302373525178
100.302310451969
100.302337484675
100.302096827508
100.302181731445
100.302323563077
100.302403100131
100.302394369502
100.302432302404
100.302533383736
100.302493059094
100.302567767437
100.30256698458
100.302585295694
100.30263957482
100.302712516175
100.303033926965
100.303262891768
100.303348034163
100.303329616164
100.303278793673
100.303108018198
100.303118535992
100.302868182504
100.302747989621
100.302668168035
100.302639611924
100.302589726444
100.302529710587
100.302560111924
100.302544229693
100.302545919883
100.302471681513
100.302252588627
100.302476385948
100.302488216632
100.302515081609
100.302616015734
100.302594430482
100.302605424833
100.302692899174
100.302766982644
100.302782036946
100.302875197589
100.303169121285
100.303327901798
100.303333430289
100.303243964866
100.30303011476
100.303266393256
100.303263639751
100.303421916353
100.303415984922
100.303321249348
100.303198135458
100.302975210111
100.302896961173
100.302776590189
100.302818751449
100.3027824528
100.30270910826
100.302721718492
100.302677668419
100.30260581617
100.302660636104
100.302679654594
100.302332812674
100.302518090969
100.302600760991
100.302503944142
100.3027264856
100.302674671461
100.302783370059
100.302741205668
100.302820327437
100.302873032061
100.302922913679
100.303032037927
100.303063056403
100.303250411832
100.303408162988
100.30335885795
100.303399907401
100.303261985589
100.303290928806
100.303431079789
100.303517964895
100.303454557853
100.303607143254
100.303676701438
100.303660508494
100.303539068857
100.303400964066
100.303172126783
100.303074600774
100.303006375534
100.3029777663
100.302910226956
100.302859776276
100.302947326948
100.302771018771
100.302820316581
100.302735544152
100.302747147824
100.302506049189
100.301918556003
100.301089902879
100.302083633517
100.30149186823
100.300779737516
100.299982066307
100.299203779375
100.300706216509
100.300062988471
100.298581082522
100.297692534212
100.297185241625
100.296931917977
100.29685458022
100.296868360848
100.296957822198
100.297108490808
100.297337865567
100.297676091481
100.298168954898
100.298883351922
100.299868369152
100.301175588028
100.302762396687
100.304519930278
100.306304642548
100.308055223776
100.309771178463
100.311389288759
100.312760214596
100.313817248902
100.314513923003
100.315463854853
100.315878325772
100.315113740916
100.313953805078
100.31245118301
100.310688922426
100.308822395173
100.306942448536
100.305082098021
100.303303919267
100.301692533398
100.300347616096
100.299292149418
100.29850373036
100.297947691704
100.297561398465
100.297297552122
100.29711872061
100.296997500439
100.296927382138
100.296927320264
100.297035709434
100.297339276138
100.297922276038
100.299066673586
100.300548420908
100.301779105897
100.302179559628
100.302135122594
100.302194066136
100.302192896485
100.302316663317
100.302217449672
100.302334486145
100.302309294451
100.302284498861
100.302105790734
100.301840748248
100.301692275112
100.301252848849
100.300686620345
100.299878719273
100.299989610995
100.300190703375
100.300445205942
100.300879731906
100.3014273664
100.301305819873
100.301000997748
100.300837735311
100.300756803176
100.301290944153
100.301357770965
100.301486567
100.301753272996
100.301956366316
100.302180423394
100.301908146044
100.301617204201
100.301206235927
100.300656192715
100.299715216928
100.300222056182
100.300976279264
100.300986860074
100.301506371912
100.301706256147
100.301220886459
100.301611126401
100.301889489953
100.302366265155
100.302295604253
100.302118095946
100.302490471867
100.30263689549
100.302835362078
100.302511963155
100.302173211397
100.301745398647
100.300983124656
100.30141939419
100.301909954258
100.302021579153
100.302544031178
100.302817474146
100.302288207236
100.302459106898
100.302804108012
100.302922580204
100.303220557364
100.303107738743
100.302817950902
100.302929907983
100.302887473863
100.302678013241
100.302443895449
100.302452050277
100.302423199293
100.302383341757
100.302278590381
100.302212616705
100.302133134967
100.302121687402
100.302126156884
100.302131607465
100.302077394965
100.302082235274
100.302083442864
100.302087613593
100.302088348837
100.302134719916
100.302087694517
100.302165457926
100.302111747393
100.30224528877
100.302183790775
100.302236392361
100.302194689112
100.302142101853
100.301934392574
100.301824608811
100.302008491467
100.302160505161
100.302201630773
100.302283016598
100.30239341052
100.302429591061
100.302484297098
100.302488262746
100.302310647031
100.302086053035
100.30158302118
100.301066549775
100.300248308307
100.299988065775
100.298910420393
100.29779492191
100.29587606599
100.295851128436
100.297581112847
100.297742852078
100.298855554882
100.298916186611
100.29776329684
100.298274280774
100.298763832572
100.29932239425
100.297960721588
100.296888429867
100.295229200373
100.296666093656
100.29721759002
100.297946374349
100.298546195669
100.299065533293
100.299911426197
100.300058662969
100.299709413523
100.29895602282
100.298244381538
100.298003949645
100.298753911403
100.298273511717
100.29943283365
100.301594006844
100.30194285697
100.301900500653
100.301925155959
100.301835070955
100.301780776088
100.301700306792
100.301805830907
100.301625733194
100.301575746944
100.301733258154
100.302199497942
100.302180096671
100.302225919087
100.30228690512
100.302271217187
100.302409579057
100.302457187064
100.302475681616
100.302535593776
100.302549338999
100.302338610139
100.302168135383
100.301606474432
100.301095453027
100.300315570102
100.29899562044
100.297968743364
100.295949671451
100.295908727391
100.293328830557
100.290296578368
100.290600835122
100.291086660662
100.292144443227
100.293253515453
100.294241834504
100.291989635928
100.290009018218
100.291743653506
100.293280662667
100.294191257543
100.29546208876
100.295602401887
100.29480576616
100.29340182896
100.292802315762
100.294271323683
100.295704336506
100.296222455647
100.295900657202
100.297432722254
100.298865878078
100.301374237585
100.301815194856
100.301696379842
100.301019000189
100.301557273446
100.301339573104
100.300404856163
100.301226897818
100.301202211748
100.301569243024
100.301728210746
100.302218236105
100.302210386668
100.302253242863
100.302320365922
100.302297052911
100.302377644711
100.302294880979
100.302448068484
100.302427664614
100.302428854276
100.30221776713
100.302018396736
100.301489099141
100.300945549891
100.300152564142
100.298936118074
100.297894305054
100.29595285567
100.293503913925
100.290569989661
100.290306975079
100.286442710276
100.282272901041
100.259809187571
100.259389628859
100.262924256923
100.28024019326
100.282911776704
100.28220823439
100.2864147818
100.286924243541
100.287696771162
100.281586411341
100.28519533935
100.28776485195
100.284135404181
100.279559455856
100.27175191416
100.279116575839
100.284342728172
100.284229125877
100.286982600067
100.289125147148
100.287123244612
100.290158551583
100.291645121596
100.29308390887
100.294293536908
100.294223921571
100.292624999223
100.291310386626
100.290884735128
100.292342568117
100.293595546091
100.294062916458
100.294723246753
100.292724504793
100.293785601029
100.293838185541
100.293908238379
100.293888454402
100.294168938568
100.293760215669
100.291866773796
100.293047596369
100.291706555239
100.295190909324
100.293124380598
100.293117269843
100.293368449228
100.293292350595
100.292841378316
100.293649983429
100.293477921234
100.293118882359
100.291974729427
100.291064036957
100.292893801299
100.291209848664
100.291138977377
100.291590735088
100.292314131138
100.291108474009
100.290683881478
100.290987323943
100.298823547462
100.298106975773
100.297721896082
100.298031160581
100.299831949515
100.301597350615
100.300127751125
100.299654290642
100.300037843835
100.296605242892
100.297951706386
100.296667937956
100.294526256577
100.294013882476
100.295831465198
100.297410984321
100.29642488833
100.296315723566
100.295128548304
100.294299948552
100.294852942657
100.294878985109
100.2983240163
100.300059268281
100.301456196358
100.301990958081
100.302117251195
100.302125498605
100.301923404612
100.301877994397
100.301692966404
100.301576697332
100.301195507573
100.300655717474
100.300155868035
100.300075263816
100.300466932847
100.30176032722
100.302221290894
100.302200302647
100.302248476789
100.302261848426
100.302406026046
100.302345453109
100.30224900434
100.302346518024
100.3023002914
100.302256160429
100.302051222613
100.301797806073
100.301345843334
100.30077781585
100.2999539463
100.298970122377
100.29781170522
100.296003767009
100.293852008782
100.291139265119
100.287819321326
100.281693395156
100.280267427556
100.263787564464
100.245246984436
100.167956063133
100.183508493456
100.20193722907
100.205194241565
100.201461629103
100.196472796643
100.207095231356
100.203536694526
100.198110648781
100.209303216713
100.205651556378
100.198716870378
100.208557569045
100.205188728175
100.198035181693
100.207383897878
100.204046014757
100.196959176112
100.206025983924
100.202753430193
100.195887610973
100.203962196661
100.201748164229
100.202297993511
100.2017368004
100.20049812934
100.200531030556
100.200762225959
100.200287794852
100.200281311377
100.200619363223
100.200136704702
100.199824726469
100.200364729651
100.200290399355
100.200008780045
100.200072555034
100.200268583708
100.200457437454
100.200916311286
100.200589167396
100.200269727743
100.199993102549
100.200558553146
100.200407770467
100.200084606137
100.199423672456
100.199354834787
100.199978648329
100.200358835733
100.200517570887
100.199979142537
100.2002588572
100.200578611852
100.200911738637
100.20043901792
100.200253104375
100.200076798112
100.200020624241
100.200290916187
100.200364197539
100.199817771707
100.200128767048
100.200616934986
100.200267010777
100.20030039212
100.200728248776
100.200514363026
100.20050885736
100.201772208498
100.202369081227
100.201824064517
100.204040187912
100.203221936073
100.204321622741
100.202624807136
100.201821438531
100.203463220386
100.203158957258
100.201691994416
100.201300510619
100.201589050386
100.199133948223
100.199933109303
100.200385556815
100.200478935534
100.200548760866
100.200291278104
100.199829500423
100.200310404678
100.199527173444
100.199545719361
100.200578073697
100.199622582947
100.201355357363
100.200896774995
100.200792321219
100.200499119797
100.200599476095
100.200457902964
100.200427575808
100.200477571833
100.200930447163
100.200277954964
100.200174949664
100.200144671227
100.200300385555
100.200825545273
100.200378802948
100.200389278678
100.200442047114
100.200557237058
100.200150803643
100.200309798199
100.200779828513
100.201506059209
100.200081125065
100.200105419528
100.199923965833
100.199938762389
100.200139418162
100.200097997757
100.2015416879
100.200789976824
100.200322829425
100.200169005281
100.200564806791
100.2007316513
100.200925604439
100.200908336647
100.200739614745
100.200602482177
100.200645449128
100.20065506098
100.200597228284
100.20071945755
100.200385208422
100.200400695919
100.200451272137
100.200976574898
100.200141803952
100.200369587993
100.201845506845
100.201345053391
100.201533624328
100.201146347435
100.202290682742
100.201647824202
100.200858231001
100.201227540295
100.201497448758
100.20151624966
100.201235806006
100.200864338931
100.201646991985
100.202356683581
100.201151027621
100.20152886674
100.201334496967
100.201845539943
100.20088063565
100.202616814185
100.201924462776
100.201825013144
100.200777445881
100.20069614349
100.200032113502
100.201127224418
100.199759207509
100.200854945966
100.201451646672
100.200426952588
100.20167279195
100.201215018676
100.203138297899
100.20413326416
100.201044845496
100.195998715596
100.202876719782
100.206164390291
100.19712035584
100.204236606995
100.207583946613
100.198281899659
100.205441204647
100.208822810735
100.199029706878
100.205966778857
100.209680816167
100.198615563264
100.204029446534
100.20737270718
100.196970089377
100.202097816523
100.202460084243
100.199579935202
100.196795693002
100.196648919677
100.201929606452
100.199474655923
100.197494343045
100.193319723468
100.198151140284
100.198265705942
100.193486479706
100.185819650609
100.185404363219
100.163865884794
100.237079093122
100.236471271091
100.164756276829
100.168271104435
100.183616189145
100.201785045445
100.20496173966
100.193758283859
100.188571443083
100.193749221465
100.192108202686
100.197842031571
100.206025096917
100.201924386309
100.202116406057
100.206317019898
100.203089313302
100.202433568834
100.205081851344
100.202297479445
100.201736427336
100.203459109683
100.201175907532
100.200876304229
100.201872802569
100.199976154208
100.203816568183
100.202868094746
100.201116379336
100.201677962378
100.203024999851
100.201677643855
100.201269241514
100.200360426445
100.202550439012
100.20263089263
100.200214556921
100.204166861213
100.204661308662
100.201712068447
100.205050506108
100.206289783445
100.202826757607
100.205969022311
100.206942793892
100.203202656752
100.201860215542
100.188351198764
100.177716833707
100.178448935851
100.1873106386
100.184684908729
100.183497303073
100.190693581553
100.178573546217
100.182299965634
100.176184345909
100.176107199017
100.183546231861
100.229107742427
100.254306141244
100.230800924193
100.159831708282
100.161110288322
100.185677753117
100.152567602377
100.137596034757
100.205913769098
100.247486642949
100.27038454817
100.279504870783
100.285372481354
100.287595104587
100.28737209542
100.28269657437
100.274970504839
100.261459294939
100.268283169961
100.27665952838
100.284014394516
100.28759699522
100.290774324405
100.293512378461
100.29365521198
100.296615995211
100.298389068218
100.297586389446
100.297058739525
100.297001508
100.297352055896
100.300417928994
100.300808996367
100.301799427533
100.302205334146
100.30212989074
100.302261260221
100.302144966791
100.302163321722
100.30230476101
100.30223240291
100.302272820858
100.302226155094
100.302157632731
100.301970675094
100.301727710233
100.301324057257
100.300796202781
100.300013360817
100.299085298095
100.297958110962
100.296249076595
100.294496376532
100.292179907923
100.289459529301
100.285294917241
100.280956295904
100.274380860714
100.254520147864
100.228812543804
100.183728789527
100.17679920072
100.1764959183
100.182455554711
100.193770952343
100.188296222068
100.192892056024
100.192035239902
100.198064460116
100.205951579701
100.201938393517
100.202199120834
100.206266136304
100.203075058635
100.202422058976
100.205026013563
100.202259493788
100.201714001177
100.203437490989
100.20114714251
100.200856326419
100.201843312561
100.19994185817
100.201786967191
100.204110902135
100.203179602658
100.201701044479
100.201294997115
100.20159211047
100.201853168978
100.2035226882
100.203228668156
100.204321953511
100.202622615533
100.202247334306
100.202953778695
100.201323409664
100.200791918104
100.202145634813
100.203831953813
100.202859400764
100.201120019145
100.201690546518
100.200426040781
100.201457711163
100.200874838729
100.199755284586
100.201139022567
100.200034021338
100.200694189485
100.200780346197
100.201833527635
100.201946724537
100.202624972312
100.200897624453
100.200218707652
100.20086780012
100.20021663003
100.200791385987
100.200446861573
100.200858230232
100.2014798627
100.201023593991
100.200473368598
100.200561322594
100.202970682906
100.205064315954
100.202698880857
100.201839323555
100.201978179905
100.202388245977
100.202121271714
100.202652168881
100.202608401142
100.202139785807
100.202394749206
100.2019671868
100.202684868406
100.205086230244
100.202991674869
100.202979254886
100.203852285728
100.202896703919
100.201987272517
100.201917638171
100.20230929993
100.201371522752
100.200558285928
100.201956895597
100.201314370299
100.200104574211
100.202566963483
100.202860377647
100.202081167056
100.201942246966
100.202732267187
100.204261109905
100.203516559378
100.202557966634
100.203467471882
100.206185251397
100.205446187428
100.202302257939
100.202865588144
100.207829646191
100.20815444638
100.201342862311
100.190342603294
100.183810397086
100.177845003526
100.18124187255
100.182045421725
100.18603137469
100.187495036633
100.183375172905
100.173962815223
100.174090917577
100.174231968282
100.170586980665
100.160327220075
100.162269410679
100.178553466751
100.175510390315
100.177413551598
100.196035654116
100.198398314228
100.210609034788
100.228726165686
100.217656238465
100.222871913284
100.24263996098
100.261635052953
100.244075914658
100.264641706776
100.275988517548
100.280892537243
100.274452427104
100.273606297295
100.281206441234
100.286906587316
100.290540811437
100.293373198434
100.292852244949
100.292159257593
100.291561752279
100.297859976383
100.298398015295
100.298633252337
100.296383433925
100.29724940718
100.299295812504
100.297217773447
100.299172772604
100.299742813817
100.301391560421
100.301472581905
100.301143807596
100.301719606044
100.29895486804
100.299924053247
100.299922975653
100.299179459667
100.299789295702
100.299169791946
100.299196695682
100.299108330244
100.299131840578
100.299249518565
100.299590043791
100.299689052993
100.299947345868
100.300131955453
100.300037070725
100.299565821708
100.298955808014
100.298755745445
100.299073648602
100.29923640631
100.299318947225
100.299216338383
100.299215993047
100.29925579318
100.299152344071
100.299170219294
100.299025754932
100.298941169596
100.298295408156
100.29854691051
100.29869126687
100.299041060877
100.29935833239
100.299384435502
100.29911646824
100.2988654685
100.299151855894
100.29934526028
100.299342798794
100.299095702358
100.299489363129
100.299211644894
100.299084550053
100.299836414004
100.30051921029
100.300028824871
100.300029365395
100.299646999204
100.299193634146
100.298991661654
100.299663040552
100.300256989259
100.300225241028
100.299674682507
100.299960614338
100.300427756111
100.300360193097
100.300235149081
100.299719145866
100.29979266968
100.300356255993
100.300405373528
100.300607815271
100.300614737593