/*--------------------------------*- C++ -*----------------------------------*\
| =========                 |                                                 |
| \\      /  F ield         | OpenFOAM: The Open Source CFD Toolbox           |
|  \\    /   O peration     | Version:  v1612+                                |
|   \\  /    A nd           | Web:      www.OpenFOAM.com                      |
|    \\/     M anipulation  |                                                 |
\*---------------------------------------------------------------------------*/
FoamFile
{
    version     2.0;
    format      ascii;
    class       volScalarField;
    location    "1.9";
    object      p;
}
// * * * * * * * * * * * * * * * * * * * * * * * * * * * * * * * * * * * * * //

dimensions      [0 2 -2 0 0 0 0];

internalField   nonuniform List<scalar> 
74874
(
100.129045969701
100.131430153196
100.131903524141
100.130493312973
100.136008510015
100.136594900257
100.133437038444
100.135045369568
100.137562393036
100.137636044686
100.13552357682
100.133987477685
100.137271159794
100.136721142985
100.137732518545
100.137915924633
100.137297296176
100.134158585718
100.131249579943
100.130679999668
100.132154415048
100.133471562834
100.131953021574
100.131603369808
100.137044607719
100.137180526173
100.132579837598
100.132845460903
100.134008207447
100.13218689164
100.132324398922
100.133822574336
100.132827364909
100.132527198135
100.137113413215
100.136615595809
100.13151353132
100.131929713685
100.133371733363
100.131792449025
100.130361392175
100.130886846324
100.133793368635
100.13693973726
100.137387273303
100.137145145301
100.131002092276
100.130261732244
100.129867680116
100.129301557696
100.128288798719
100.12829410904
100.127579168577
100.127926829887
100.128193804851
100.128750591939
100.129951342715
100.129439821225
100.12783220983
100.127544889887
100.127277830943
100.126824729915
100.126869085224
100.127406970143
100.127567963614
100.127903647278
100.129456634602
100.129990359688
100.128866152073
100.128349286892
100.128217254832
100.127879657232
100.128541373093
100.12855132975
100.12953962711
100.130156378771
100.130633556502
100.131411957407
100.130956127778
100.132526453032
100.1321349297
100.133277504171
100.133536875111
100.133321742167
100.132754600664
100.13227336835
100.131776573081
100.128620443938
100.126945420153
100.128976349517
100.127937735299
100.124245761639
100.125194708852
100.127806666431
100.127504258961
100.125760807146
100.124002455986
100.125584783352
100.127147490899
100.126498021767
100.125821989228
100.125405959546
100.123585857917
100.122521084314
100.123717785015
100.123662218742
100.122400666606
100.123538923466
100.125518773711
100.126001626968
100.126348091272
100.127356319009
100.126129278676
100.124482605078
100.126125428718
100.127764427809
100.128041219451
100.125370746158
100.124463235318
100.128346857034
100.129400693813
100.127461298433
100.129440456121
100.133002315166
100.133225841942
100.130814581042
100.130578483379
100.124159343137
100.132309803188
100.131903148595
100.126472650552
100.123998509013
100.128636401985
100.129009003667
100.123338164079
100.123572032527
100.126471399961
100.124878067298
100.1237055077
100.121709929876
100.124596706859
100.127172529367
100.123411924769
100.122855050595
100.12509391102
100.12146893257
100.119121119687
100.121305588782
100.121270758477
100.119059265382
100.121441328879
100.12520512906
100.123227390551
100.124075614747
100.128137548499
100.125580215528
100.122288246725
100.1241215232
100.125182222322
100.126756894992
100.123781722012
100.123500837541
100.129584247977
100.129106996369
100.124699204356
100.127729470338
100.134520742887
100.135399009112
100.125094775193
100.152230310876
100.150188313073
100.12276892462
100.122632069852
100.127959538457
100.117500587846
100.119034115359
100.130086612525
100.12645994294
100.123607535866
100.123537686088
100.128443677207
100.118017277511
100.119162384638
100.119420329712
100.119172560977
100.125996197191
100.122260483588
100.122224795794
100.125858635538
100.119301131545
100.119569468302
100.119338185925
100.117930017651
100.116380813386
100.119322006599
100.117078761601
100.108440105871
100.111043004852
100.08281702566
100.078928869713
100.079292347321
100.08506200415
100.116288454112
100.110605921495
100.093562293394
100.086572512175
100.080251797445
100.081006126097
100.08598252298
100.082965088083
100.083930832246
100.087227826647
100.087215183193
100.083882289939
100.082948536741
100.08561842556
100.08479897396
100.078594187779
100.077323652471
100.08185239528
100.079894958435
100.079726076373
100.078725834995
100.078751270062
100.084976409033
100.084181756249
100.084497232853
100.084882812949
100.080148700961
100.080721699338
100.082069625932
100.082045108182
100.080703455036
100.079938541789
100.080929636491
100.08015522173
100.078674040194
100.078706807375
100.085502281914
100.084564630615
100.084226762314
100.084994604313
100.086272989673
100.086216341211
100.085597489173
100.085776243653
100.086030056219
100.086062811488
100.085155807438
100.084873658109
100.084864770365
100.085046437395
100.084686870196
100.084457238773
100.084114923531
100.085038971178
100.086149189807
100.086459078294
100.085714762178
100.085609885356
100.083884424267
100.084172787333
100.08415365153
100.083948065997
100.084101873332
100.084101258569
100.084130471719
100.083993982025
100.085711506992
100.085685048552
100.08592813893
100.085849773363
100.085684638333
100.085523899335
100.083819128279
100.084004613922
100.084145530448
100.08386071996
100.081538584887
100.081590319046
100.081703135149
100.081731260551
100.081646056769
100.081763130572
100.081713428923
100.081763108598
100.081714693205
100.08170032248
100.083973829759
100.084046704869
100.083976659326
100.083980219281
100.081655423678
100.081504686395
100.081585692089
100.081600580503
100.07960051253
100.079588979792
100.079641173436
100.079700396469
100.079759621258
100.079684669319
100.079771560532
100.079740069506
100.079788676283
100.079753607674
100.079741724416
100.079762801811
100.081724546642
100.081629342597
100.079674255573
100.079691523849
100.079580167698
100.079651798028
100.077916522864
100.077875372983
100.077823820156
100.077855635596
100.077898923976
100.07797726908
100.077920736715
100.078001496526
100.077980242932
100.07802839966
100.078009527202
100.078004909291
100.078014625745
100.07792959579
100.077944323155
100.07786547699
100.076062562756
100.076065021538
100.076022849143
100.075922210584
100.075940150564
100.075985855573
100.076089598677
100.076060053557
100.076151941215
100.076131774719
100.07620143779
100.076214447375
100.076220349326
100.076216321005
100.076117446287
100.076129247217
100.074049320923
100.073972815273
100.073941336613
100.073889864499
100.073643835388
100.073655920201
100.073803925697
100.073914925362
100.073894317477
100.074013633884
100.074014919401
100.074119944154
100.074173276141
100.07422761525
100.074212199446
100.074094904824
100.071526122359
100.071443996565
100.071329944078
100.071304731802
100.071244409874
100.070649115581
100.070615240128
100.071043242026
100.071146164241
100.071160509091
100.071313701959
100.071383227727
100.071575734702
100.071639285109
100.071718303036
100.071658522745
100.067838163814
100.067620126132
100.067636863148
100.067432248267
100.067238557943
100.067439860597
100.066205585143
100.066062761756
100.066992958144
100.066874298129
100.067036026221
100.067303743491
100.067347393003
100.067712108693
100.067892925101
100.067950521392
100.061890858798
100.061739778726
100.061225622115
100.061496779307
100.061368036179
100.060486003502
100.061371654383
100.058850327399
100.058726530765
100.060687919244
100.059791858001
100.060509098037
100.06078051339
100.060779530102
100.061321517536
100.061711227427
100.039407562074
100.039620321671
100.036354971443
100.036031206214
100.039674182407
100.040258715392
100.035499735855
100.03597160216
100.035890762501
100.035799614372
100.035349804598
100.034249319187
100.039090416501
100.038756459818
100.035505889142
100.035944826767
100.041769236833
100.044570862859
100.044649839056
100.04250926756
100.042289635845
100.043930424598
100.046151632366
100.03994049071
100.026771820462
100.069152905933
100.104802190966
100.104480469024
100.06801641834
100.035215975964
100.035429490176
100.174049676561
100.298567109782
100.224031142161
100.222066140336
100.175253741214
100.159889710092
100.145273511492
100.038939767572
100.045476283733
100.0436672635
100.041685667211
100.151056333206
100.151711386108
100.190500986704
100.129446829749
100.13018281606
100.191870048448
100.152982123779
100.151794682732
100.188170418852
100.125124127919
100.122892724187
100.179012266414
100.145599768436
100.162805241148
100.177832778537
100.297838507313
100.36789982867
100.34625604932
100.342979321689
100.361750306015
100.340062731531
100.293618530241
100.459049819881
100.485292914768
100.492360537622
100.526252923933
100.596406683036
100.600609625452
100.521372399486
100.454383124118
100.387948253149
100.350024012414
100.374005485312
100.372522817433
100.369452006594
100.369548303587
100.370464422792
100.371445097358
100.372712813056
100.374528126726
100.376883820743
100.379626082825
100.382492254804
100.385029457879
100.386641168176
100.38541404661
100.38371418689
100.381699668484
100.379496541361
100.377273097347
100.375043605199
100.372803470098
100.370698509059
100.368889453377
100.367449044031
100.366365372984
100.365531172844
100.364854795152
100.364305543558
100.363897635109
100.363605169079
100.363394280284
100.363289985278
100.363435142401
100.364147823271
100.365718181935
100.367720956243
100.369774883278
100.371644272289
100.372699540141
100.372620596478
100.372604023373
100.371996208351
100.371434100397
100.369509916879
100.367432778746
100.365543624023
100.364095019507
100.363436011876
100.363273318631
100.363325151532
100.363500490888
100.363796136501
100.364219818005
100.364765153974
100.36542163626
100.366215601699
100.367237039172
100.368586038521
100.370280486921
100.372266566335
100.37439086945
100.376488116035
100.378523244628
100.380482495742
100.382243857837
100.383749125117
100.384845972582
100.38538570649
100.387247406871
100.388511236707
100.387865298106
100.386558227472
100.384731562671
100.382546112264
100.380163525316
100.377775928095
100.375427535386
100.373120889832
100.37095738921
100.369083095681
100.367571858053
100.366426061984
100.365542466104
100.364834148332
100.364267059265
100.363857626836
100.363579768756
100.363385805259
100.363312326205
100.363537662445
100.364371585789
100.366064499244
100.368140079497
100.370169252168
100.37192448537
100.372905402489
100.372799846434
100.373099464006
100.37334435953
100.373330595927
100.373519666545
100.373425489626
100.373602083765
100.373507376794
100.3737001559
100.373650857437
100.373715263314
100.373578692391
100.373539308511
100.373375828692
100.373187413321
100.373185742592
100.373098004694
100.373386132598
100.373539376559
100.373491623856
100.37355053977
100.373398006328
100.373481138909
100.373323082207
100.373414760246
100.373238818296
100.373245260242
100.373010738491
100.372887199675
100.373137049387
100.373147717554
100.373307262364
100.373228465937
100.373364032886
100.373313830536
100.373430379823
100.373350685885
100.373337794958
100.373151467363
100.37312727634
100.373035621368
100.373099215408
100.372981718581
100.373131674307
100.373246696459
100.373265882459
100.373181473339
100.373263182411
100.373145633314
100.373218869785
100.373064970869
100.373054182119
100.372792729149
100.37269263883
100.372914660168
100.372950681498
100.373105660839
100.373063661301
100.373136547334
100.373158258606
100.373038560504
100.373250644356
100.373296104342
100.373374169921
100.373488776307
100.373627593825
100.373783196985
100.373653052284
100.37388104099
100.373840505986
100.373926030709
100.373790095548
100.373768813039
100.373600196437
100.373340508435
100.373066938535
100.372864565913
100.372664988405
100.372451427372
100.372265267538
100.372308803732
100.372401921691
100.372670052494
100.372878164412
100.373101646532
100.373378558596
100.373166471627
100.372963260756
100.372846678699
100.372935751969
100.372858236084
100.372564250865
100.372335546201
100.372219124304
100.372101323459
100.372277196956
100.372278425413
100.372471533573
100.372770212302
100.37288509088
100.372990764196
100.373098926331
100.373142997754
100.373237928929
100.373332415484
100.37343215201
100.37356614022
100.373738616072
100.373913008102
100.373985754087
100.374079498659
100.373921975506
100.373918818197
100.373699181407
100.373530092538
100.373289334685
100.372888042489
100.372474293649
100.372116307392
100.371977355637
100.371741199013
100.371722366189
100.372012248279
100.372349117765
100.372724268542
100.372480252114
100.372149076904
100.371861842438
100.37165877013
100.37143876127
100.371203322689
100.371010863823
100.371179580957
100.371297058815
100.371607592957
100.371817632014
100.371943238609
100.371715094687
100.371845570832
100.372190512661
100.372183515705
100.372537471516
100.372714542867
100.3730508205
100.373212161206
100.373243261109
100.373325679013
100.373424636117
100.373536736683
100.373447235745
100.373652828563
100.373544592823
100.373756926906
100.373897385976
100.373791893233
100.374028391961
100.374193501567
100.374193805612
100.374303901218
100.374215741862
100.374008153265
100.374044825184
100.373989421465
100.374159706869
100.374083864405
100.374185928986
100.374081562934
100.374095732011
100.373927720706
100.374052458277
100.374320157515
100.374316559329
100.374431706539
100.374393704604
100.374247558888
100.374196774785
100.373778422163
100.373618245349
100.373482412199
100.373123458176
100.372678405728
100.372302621946
100.371721618262
100.371506038377
100.371268412179
100.371069691531
100.370886214367
100.370702512848
100.370426742288
100.370117379518
100.370024060747
100.370325541068
100.37071912997
100.370944409281
100.371141529092
100.371337056425
100.37150786103
100.371242494394
100.371398445441
100.371236418613
100.371517839453
100.371905152561
100.373057165707
100.373355369651
100.373344323647
100.373590856669
100.373572852259
100.373778077543
100.373666830042
100.37380425765
100.374033980179
100.374155694599
100.374283921537
100.374190980541
100.3744561334
100.374457089975
100.374568413815
100.374518738407
100.374359325086
100.374308464062
100.373935205998
100.373757906424
100.373405874978
100.373005546256
100.372649533376
100.372474633325
100.371915242301
100.371726031865
100.371546252256
100.371416206155
100.371417604369
100.371134137464
100.370873834394
100.370690769852
100.370353101784
100.370566378113
100.370877164136
100.371144912991
100.371303144701
100.371049609805
100.37079730041
100.3704573001
100.370451831186
100.370062969446
100.369686354273
100.369386812739
100.369146151995
100.368937455577
100.369176394273
100.369528574886
100.3698492066
100.370177623811
100.369919943677
100.370091980592
100.37022809208
100.370474283202
100.370621720269
100.371155466237
100.371582759821
100.372812916841
100.373109671517
100.373249874166
100.373232891256
100.373471320625
100.373484651089
100.373604204014
100.373750158263
100.373734156261
100.373709933978
100.373922479099
100.374043790537
100.373928777004
100.374049295873
100.374160928641
100.374383531752
100.374298571131
100.374554168681
100.374549878193
100.374664501079
100.374607553702
100.374503521827
100.374400109684
100.374093169011
100.373886343938
100.373495931371
100.37308608866
100.372766162068
100.372246217241
100.372110416623
100.37194552935
100.371783195062
100.37166842493
100.371691651428
100.371565943388
100.371785746732
100.371502123895
100.371209440518
100.3709181354
100.370599340574
100.37025406049
100.369859103878
100.369476123405
100.368992983306
100.369296782099
100.369769726046
100.370200347911
100.370435621121
100.370696203088
100.370987798284
100.371280231729
100.371288383245
100.371159838886
100.370803815221
100.370100171141
100.370126836638
100.369976220767
100.369480806774
100.369055497109
100.367859771227
100.368246531347
100.368893673855
100.369528157749
100.370166905556
100.370456419144
100.370340629442
100.369956742268
100.369410648743
100.368815908156
100.367863466627
100.366749350199
100.36569811037
100.363440073716
100.361732863467
100.363832197771
100.365283508933
100.366462632265
100.367656250782
100.367352950034
100.366023364734
100.365016783857
100.36326695436
100.361275292167
100.360351249029
100.360454312491
100.361920429005
100.363923303462
100.365321637985
100.365908786673
100.366960994985
100.367578501873
100.368371312696
100.369344660456
100.370033706682
100.370727386679
100.371329325294
100.370695440365
100.370948441233
100.370764345721
100.371401428227
100.370963057932
100.37043193438
100.369823193601
100.369150598749
100.368504139474
100.367762493698
100.366674697073
100.366076989335
100.364796870503
100.364698563288
100.36436065597
100.36262939436
100.361858164515
100.360963931835
100.355473815722
100.356685510994
100.356833064672
100.358602282633
100.359680028187
100.363673406781
100.365080240722
100.36820736538
100.368853698228
100.370907222166
100.370133082457
100.369018827841
100.368957314828
100.368987189119
100.369048509811
100.369445109342
100.368701886553
100.367123930004
100.36675296587
100.36666930489
100.366735036391
100.36879176331
100.370797660767
100.370773714921
100.371576915124
100.372105432862
100.372139892612
100.372552867302
100.372325678189
100.372494097275
100.372557088775
100.372625649399
100.372570776344
100.372454354203
100.372270803782
100.371755363644
100.371499332877
100.371749972736
100.371865401939
100.371869630839
100.372100223408
100.372068278861
100.372114277027
100.372437036832
100.372484367846
100.372662682028
100.372350640855
100.372555794274
100.372620771555
100.37225491396
100.372456179089
100.372120864972
100.372083129711
100.371586968734
100.371474032855
100.371996743712
100.372047318143
100.372354715936
100.372225181862
100.372526824415
100.372335222835
100.37256314332
100.372407018114
100.372372026546
100.372324592016
100.372403960532
100.372474875713
100.372370915741
100.372311334364
100.372212823312
100.371898424488
100.371405634454
100.37098311291
100.371347493684
100.37149467645
100.371779787424
100.371752380756
100.372135231162
100.372222517979
100.372349139352
100.372027280685
100.372239320181
100.372344581514
100.372118433589
100.372228103216
100.37183270861
100.371899835628
100.371616877322
100.370972815714
100.370761538772
100.369932308441
100.370108408556
100.370202626312
100.371124205223
100.371616189325
100.371662469033
100.372069627258
100.371839247424
100.372255568586
100.37216434562
100.371975803493
100.37222601161
100.372087147564
100.371913635545
100.371806433317
100.37197314238
100.372034555582
100.372112597303
100.37198882219
100.371933215235
100.37177729202
100.371454313229
100.370821455424
100.370089444992
100.37064297963
100.370831349154
100.371183474166
100.371251001539
100.371659568193
100.371820907616
100.371906774195
100.371581185398
100.371864764778
100.371937494921
100.371777104153
100.371827138272
100.371964144803
100.37154559621
100.371595054076
100.371213669605
100.370440452834
100.370490533563
100.371249465016
100.371287895858
100.37185605202
100.371599314255
100.371729467108
100.37181957586
100.371828598837
100.371880052004
100.371916045729
100.372067506752
100.370434992344
100.371359969254
100.371399349687
100.371654251805
100.372157576584
100.37231727481
100.372309105257
100.372587886718
100.372540419694
100.372646638126
100.372728653244
100.372584440052
100.372662871124
100.372477239279
100.372448375852
100.372590767869
100.372651113529
100.372669292922
100.372733605759
100.372744254311
100.372698179144
100.372400266719
100.372274816836
100.372441344838
100.372281889651
100.371888176333
100.371576652625
100.370871923021
100.370250444178
100.369695844999
100.36999076802
100.370262148086
100.370261225499
100.37028712014
100.370734118103
100.370824986742
100.370902039059
100.370770835921
100.370424363007
100.37081702987
100.371123861927
100.371463308676
100.371860465766
100.372139377337
100.372288801772
100.372314662656
100.372346477268
100.372368809349
100.372425537196
100.372657630581
100.372590712163
100.372792599853
100.372661350497
100.372841507452
100.372949613794
100.372824120745
100.372767889397
100.372471312859
100.372319937259
100.372038076421
100.371609919758
100.371170735929
100.371136626037
100.371391893008
100.371428843594
100.372003336445
100.371657294169
100.371851251459
100.372254160728
100.372406398452
100.37263895498
100.372658743475
100.37274242238
100.372643087983
100.37289991374
100.372770060322
100.37277940585
100.372998884673
100.372883656105
100.372820205665
100.372636047122
100.372479203829
100.372754301896
100.372861303531
100.372978487086
100.373039541904
100.37305573648
100.373033275203
100.372947321175
100.372982019978
100.372772737546
100.372757011197
100.372618904134
100.372274972001
100.37225124263
100.371699923292
100.371253712949
100.371177950925
100.370925231819
100.370853797803
100.370834838985
100.370787033874
100.371669186671
100.372194748749
100.372242599996
100.37246018325
100.372475026735
100.372747334341
100.372859452099
100.372667026573
100.372991606752
100.372973184245
100.373059435104
100.373121207165
100.373200756152
100.373258191086
100.373354802342
100.373451327032
100.373596210218
100.373715187022
100.373867989636
100.373987630996
100.374120998492
100.374225463488
100.374333027461
100.374265610617
100.374470839057
100.374388815205
100.374632991637
100.374633961491
100.374758496972
100.374673234662
100.374638957285
100.374538809751
100.374507712619
100.37429109097
100.374022100933
100.373608021395
100.373215670274
100.372919110937
100.372425267771
100.37232553793
100.372175199295
100.372127907318
100.372125804547
100.371884493357
100.371776297457
100.372004967644
100.372008008833
100.372059198627
100.372136070406
100.371898662869
100.371662482518
100.371415037041
100.371131736893
100.370815049614
100.370360307034
100.370635796391
100.371019147352
100.371296829907
100.37155799575
100.371811867483
100.371771550943
100.371495026582
100.371220227554
100.370933123996
100.370553950463
100.370055493472
100.370376441817
100.36989220218
100.369388777868
100.368918319638
100.368515379902
100.367859361432
100.368267221344
100.368835107952
100.369200824366
100.369640485743
100.36960074224
100.369476515154
100.369209470935
100.369122450575
100.369189096619
100.369504534305
100.369235924039
100.369548572732
100.371478838441
100.371854246933
100.372249108584
100.372265702939
100.373174375927
100.373045016379
100.373499584706
100.373625631998
100.373856165179
100.373840969496
100.37396947024
100.374161913769
100.374266021717
100.374368936718
100.374448894061
100.374354183924
100.37454205846
100.374481987295
100.374696595109
100.374695431116
100.374798297314
100.374703338204
100.374680573422
100.3745660717
100.374323538172
100.37413058414
100.373727068587
100.373399485665
100.373091968121
100.372642575764
100.372515673295
100.372226686506
100.37234218458
100.372156716163
100.372289657698
100.372290140195
100.372423752896
100.372201740339
100.372215366703
100.37232063012
100.372385206018
100.372341272436
100.37241840744
100.372176082847
100.371950192169
100.371709363859
100.371431433139
100.371132074888
100.370787788986
100.37034969884
100.36994053605
100.369534864821
100.369926651379
100.370363015753
100.37063743219
100.37100302052
100.371310091269
100.371581931257
100.37182992768
100.372078885384
100.372094280247
100.372013685634
100.371562903673
100.371961968246
100.371451644483
100.370993263678
100.371448095986
100.371016243452
100.371224782553
100.370940268835
100.371763618418
100.370645864876
100.370130604464
100.369395282417
100.368493073402
100.367571536762
100.366895909007
100.366483922744
100.366136726032
100.365772654682
100.364302903275
100.364335391084
100.363652465404
100.363211457035
100.362047730532
100.361010487074
100.360524196448
100.360394368779
100.354377426013
100.355029179804
100.35380719468
100.35438651855
100.354236131398
100.355656507284
100.356523360163
100.35568314593
100.354380752702
100.355856095473
100.355277003893
100.355649732083
100.356452500271
100.35650490558
100.355455844956
100.355543255429
100.3589864462
100.354109172589
100.353804595719
100.355857624002
100.355787787652
100.355979088246
100.357562156089
100.35871288155
100.359833690873
100.359916097537
100.357988000667
100.35905711867
100.360576649822
100.359389815741
100.357783814318
100.358026507823
100.359973421718
100.361448779234
100.363405473118
100.36487211263
100.365475379485
100.36381987173
100.365173547158
100.366653538211
100.367080045892
100.36849584292
100.367867662173
100.368941462451
100.369809770824
100.370587781409
100.371199705127
100.37175962964
100.371912579602
100.372161612195
100.371997622915
100.371235914672
100.37159472736
100.371506865861
100.372049220002
100.371091995763
100.36861334872
100.368069003609
100.367394002599
100.366589159822
100.365764753381
100.365116125841
100.36469277762
100.364460490788
100.364445646421
100.363567202884
100.363321552354
100.363366863989
100.36345334285
100.363608179464
100.36330292908
100.362870819014
100.363951663284
100.364349224164
100.365430724419
100.366969441093
100.368986782985
100.369315626846
100.367216506584
100.365480084289
100.364200491469
100.363565069162
100.363324448151
100.363287584923
100.363402837245
100.363680655338
100.364105894033
100.364641390893
100.365264776387
100.365996428464
100.366917206207
100.368112435262
100.36963684155
100.371474321092
100.373497914022
100.375504322388
100.377340580922
100.378997068192
100.38046321617
100.381724909525
100.382662827997
100.383129235814
100.383091382282
100.385357967982
100.387230918982
100.388503857386
100.389075102466
100.389077045269
100.38841138101
100.387063612215
100.38517002101
100.382900871082
100.380422069287
100.377943721376
100.375533139534
100.373202352416
100.371024251762
100.369128488986
100.367581706378
100.366394634175
100.365473534749
100.364736402001
100.364151560073
100.363737038888
100.36348765184
100.363362050287
100.363393779419
100.363752329091
100.364759125147
100.36658518687
100.368690931445
100.370629623959
100.37114789675
100.372642484004
100.373479619601
100.373342981825
100.373625737962
100.373351936668
100.373870803726
100.374003768967
100.373987305691
100.374100201319
100.374089803381
100.374199469485
100.37429976767
100.374382572842
100.374518758024
100.374433500135
100.374605216877
100.374561835143
100.374745198314
100.374750042321
100.37483445491
100.37475886154
100.37473260832
100.374624993788
100.374387427316
100.374210628963
100.373733901031
100.373543530454
100.373329028535
100.373176845835
100.372923320762
100.372762197604
100.372487603025
100.372534102413
100.372490208114
100.372514980656
100.372618725641
100.372544557329
100.372769668692
100.372605869898
100.372352701534
100.37254043272
100.372579508207
100.372612022728
100.372684885842
100.372490117596
100.372452354406
100.372122204415
100.371870012011
100.371620612031
100.371317899641
100.370997342591
100.370613426609
100.37035379648
100.370564007482
100.370956225064
100.371273271974
100.371580388386
100.371827460597
100.372079131294
100.372344978036
100.372331563132
100.372401653928
100.372319532835
100.372140080432
100.372317018807
100.372124986401
100.372370120822
100.371916635689
100.372344194758
100.371951357477
100.371650926795
100.371870739019
100.371968513818
100.371840975949
100.372313411668
100.371568345001
100.369191809889
100.367382631758
100.366192800531
100.365465266668
100.364936273609
100.364390098219
100.363981623277
100.363673727302
100.363546020588
100.363430182311
100.363335667803
100.36329793588
100.36322267955
100.363314018135
100.362914633018
100.363150812565
100.363252108719
100.363397340863
100.363351919694
100.36337358602
100.363516730928
100.363565448326
100.363559089851
100.36343317717
100.363692835854
100.363498628587
100.363265719458
100.36246935289
100.361252257647
100.361100082808
100.360053344239
100.360058660009
100.354682677498
100.355078184602
100.354865708452
100.356493185937
100.35639694024
100.357904767865
100.3587609752
100.357978343828
100.357217989494
100.357874825396
100.358162492287
100.358088462444
100.358456374734
100.358876984183
100.358068578813
100.360615082567
100.360333167849
100.358742341616
100.360516731205
100.360496775028
100.356973915009
100.356707564045
100.355195397863
100.358764886237
100.36112786113
100.364342860768
100.367160639911
100.368624952862
100.369203610709
100.370299890286
100.370994696389
100.371181885978
100.371142232491
100.371572617988
100.371439574795
100.371707699369
100.371741678137
100.371533245836
100.37173450993
100.371473787206
100.371209100377
100.371457262756
100.371590605038
100.371471684264
100.371226562063
100.370802051399
100.370226945724
100.370846939522
100.370885309103
100.371220046136
100.371196033651
100.371423207474
100.371621613851
100.371679535889
100.371379711066
100.371626335628
100.371679915022
100.371257064674
100.371445395029
100.371560936342
100.371098185928
100.371110266242
100.370598827468
100.369726475905
100.368637191216
100.368119669304
100.366340610331
100.367988346727
100.367849161747
100.369029564201
100.369959541085
100.370854636966
100.371269766874
100.371256733
100.371642886815
100.371485412599
100.371898749356
100.371666830439
100.371694980249
100.371760250961
100.371717714785
100.371681375486
100.37156619382
100.370487263121
100.371315904343
100.371482973413
100.370553896933
100.368100150361
100.369176335879
100.36951543959
100.370786149189
100.371401180136
100.371430599884
100.370900469059
100.368439933689
100.369743688985
100.370185096603
100.371067507598
100.371475979434
100.371173691
100.370953481856
100.370803932941
100.370346157951
100.369111034882
100.370082192786
100.371146043235
100.371235632018
100.371282231501
100.369711528086
100.370475202359
100.370668817279
100.371396141695
100.371893078084
100.371971376555
100.372015660787
100.372076624691