/*--------------------------------*- C++ -*----------------------------------*\
| =========                 |                                                 |
| \\      /  F ield         | OpenFOAM: The Open Source CFD Toolbox           |
|  \\    /   O peration     | Version:  v1612+                                |
|   \\  /    A nd           | Web:      www.OpenFOAM.com                      |
|    \\/     M anipulation  |                                                 |
\*---------------------------------------------------------------------------*/
FoamFile
{
    version     2.0;
    format      ascii;
    class       volScalarField;
    location    "1.6";
    object      p;
}
// * * * * * * * * * * * * * * * * * * * * * * * * * * * * * * * * * * * * * //

dimensions      [0 2 -2 0 0 0 0];

internalField   nonuniform List<scalar> 
81489
(
99.9979988491069
100.002822942572
99.9960338762618
100.00030241955
100.005617587378
100.00229148949
100.001913789226
100.001965800588
100.002135866447
100.001751756033
100.00235688414
100.00544310907
100.009287436052
100.008121962797
100.00632411979
100.007328696055
100.004476263695
100.002092947607
100.002111137207
100.00449013286
100.007302993048
100.006280706409
100.008088406164
100.009242681938
100.00542190836
100.00232708815
100.001721653434
100.002111638151
100.001939321354
100.001883322041
100.002258603985
100.005598029718
100.00940910072
100.008256417596
100.006317895601
100.007329775779
100.004518038689
100.002158006397
100.002141082113
100.00450457567
100.007352935262
100.006364393057
100.008295045459
100.009447452126
100.002605729547
100.0018940669
99.9976171118334
99.9981284119944
99.9994853721807
99.9999045792686
99.9999324174667
99.9995083655514
99.9981097947894
99.9975825880476
100.001864742422
100.00257817223
100.00030079904
99.9992340916912
99.9999344736379
100.000172365825
100.000125806396
99.9997995562375
99.9994605312643
100.000435762034
100.002568147383
100.001841496099
99.997557304557
99.9980677020179
99.9994640180342
99.9998887644165
99.999858840998
99.9994336507373
99.998090141789
99.9975947198591
100.001872339691
100.002593574986
100.000437711144
99.9994733390787
99.9998151712259
100.000142569576
100.000189698521
99.9999491519087
99.9992487154951
99.9960105020719
99.9981425956749
99.9980512045016
99.9867467837476
99.9891421211523
99.9892764008279
99.9995854501215
99.9942066358695
99.9922919253954
99.9947126315625
99.9968691345775
99.9968994166559
99.9947157874732
99.9922432375317
99.9941666065213
99.9995562899473
99.9995657102115
99.9960388995385
99.996000359663
99.9981379434021
99.9969826528562
99.9969589754973
99.9981870420231
99.9960830778788
99.9959244801271
99.9995168297967
99.9995648536525
99.9941525711223
99.992195215165
99.9946662103045
99.9968528477085
99.9968247189268
99.9946538130948
99.9922389288711
99.9941905749003
99.9995933879062
99.9995503805358
99.9959218973881
99.9960948652274
99.9981929610314
99.9969754761477
99.9969999991419
99.9940618833774
99.9940133452551
99.9867899319295
99.9569893303123
99.9569097734363
99.9513122965085
99.9522858241433
99.9574519115487
99.9878335480051
99.9948630547307
99.9941978402911
99.994193849511
99.9947894789296
99.9974212123902
99.9892761972464
99.9891057542864
100.002835779968
99.9980455868072
99.9940362764466
99.9939901662452
99.9977683078414
100.002415924622
99.9890954151976
99.9892781281246
99.9877751622883
99.9878125794148
99.989281779568
99.989132180739
99.951445521203
99.9512224877747
99.9527300726881
99.9527184429476
99.9512052910679
99.9517335125721
99.952560336638
99.952582067733
99.9575015504927
99.9877980710066
99.9818968319382
99.9651879140555
99.9587574430154
99.9585977574922
99.9561433151381
99.957198896821
99.951753496537
99.952386933853
99.9513685383623
99.956938073791
99.9867207378014
99.9867638029953
99.9570182141291
99.9514993537572
99.9524624875644
99.9575402894478
99.9574911006208
99.9523638487634
99.9517485391759
99.9572024944798
99.9570716101149
99.9563470560266
99.956357119361
99.9571009835741
99.9572199662333
99.9561478937158
99.9574679227975
99.9574656765657
99.958093353072
99.958055528301
99.9570978853839
99.9512278710079
99.9527474587351
99.9527611339102
99.9512482649546
99.9517683902294
99.9526126761871
99.9525902659302
99.9561533657472
99.957462258314
99.958092618477
99.9580400949808
99.9575308812731
99.9575354411569
99.9580596830074
99.9581015873293
99.9560166159586
99.9558356610294
99.9558399353816
99.9560250917153
99.9559707119956
99.9558384733903
99.9575378069579
99.9563667131857
99.9563564737967
99.9570697391086
99.9571799327923
99.9561491568773
99.9574586069398
99.9558290932791
99.9558277971672
99.9560154427843
99.9559596166133
99.9558330101294
99.9558322572486
99.9559659655248
99.9535963123231
99.9536329914448
99.9535644413608
99.953570460373
99.9536460624035
99.9536122566796
99.953574128346
99.9535708792165
99.9558378048106
99.9575322930877
99.9580381934484
99.9580766632679
99.9560103855285
99.9536248140036
99.9535513134189
99.9535484959648
99.9536209505003
99.9535937616501
99.9535580749348
99.9535569444087
99.9516151942536
99.9516538175766
99.951675972159
99.9516246802949
99.9516338610702
99.9516980126116
99.9516916154331
99.9516494374724
99.9516400257333
99.9516574183348
99.9536006809632
99.9559643674982
99.956529409264
99.9538974059072
99.9519267591286
99.9516595241345
99.9515946387467
99.9515926467408
99.9516517464156
99.9516455918775
99.9516117606568
99.9498186704266
99.9498297075244
99.9498700749938
99.9498853354911
99.9498660557256
99.9498830517426
99.9499267132958
99.9499306128569
99.949892975442
99.9498787765743
99.9498716674871
99.9498625521478
99.9498068224412
99.9498054986739
99.9498398306296
99.949840910317
99.9478676472885
99.9478530684329
99.9478720590252
99.9479197433534
99.9479545586899
99.9479638442104
99.9479965974823
99.9480221428194
99.9480293650652
99.9479915484902
99.9479709229255
99.947943223371
99.947915091652
99.9478521850079
99.9478589907775
99.9478639545228
99.9455016370204
99.9454722812697
99.9454214463203
99.9454518554001
99.9455435160177
99.9456106110109
99.9456282109518
99.9456961460995
99.9457672829783
99.9457509180083
99.9456728491496
99.9456437441047
99.9456024024746
99.9455342139241
99.9454293222342
99.9454560711446
99.9421151355331
99.9421886195434
99.9421207422062
99.9420359908703
99.9420658689194
99.9421987322137
99.9423443349253
99.9423873743841
99.942531543685
99.9426317931922
99.9425867705435
99.9424533882733
99.9423909388341
99.9423446289697
99.9421871964238
99.942060242054
99.9369249398314
99.9369676335647
99.9367452218865
99.9365249366315
99.9366723994283
99.9368096315685
99.9368114619418
99.9370975178953
99.9374526852576
99.9376767061318
99.9375234139311
99.9374489728762
99.937563278976
99.9374087957318
99.9370814569902
99.936746298285
99.9220973052455
99.9233731455903
99.9230476274316
99.921467898595
99.9212062985065
99.9231261035304
99.9233868762281
99.9218753277858
99.9223557122836
99.9240001361545
99.924258283231
99.9228263353298
99.9227687648976
99.9241443265893
99.9238424889655
99.9223406745093
99.9360928209482
99.9363158551847
99.9327930685874
99.9320781811564
99.9349996013635
99.934528376154
99.9312177055229
99.9317275103029
99.9355883449661
99.9366067493802
99.9338160416637
99.9341500769106
99.9375420548856
99.9369942322895
99.9334154757862
99.9330527419008
99.9923831745155
100.045876065878
100.002124799325
100.001348249405
100.043840515126
99.9903023567661
99.988830289906
100.042368419983
99.9992952137114
99.9996630549042
100.04296613864
100.074816683865
100.074767217057
100.043598767928
99.9899529339157
99.9894281461106
100.113572136145
100.212893608167
100.169045164009
100.169371483988
100.143775480403
100.138811651144
100.138208671931
100.001695269274
100.045520404435
100.077587518197
99.9919917435583
99.9923588783094
100.046508382399
100.003167992921
100.003328075744
100.046743647811
99.9928663777003
100.07890046925
100.078643505572
100.17335740893
100.145991598906
100.13937788794
100.137682389247
100.14207088165
100.168326209931
100.168342923157
100.141273004532
100.136042539389
100.136841242699
100.142573873357
100.234159913918
100.272608018105
100.250715031868
100.250854162489
100.273227922286
100.266143974282
100.235845915794
100.330891451466
100.365369999695
100.337043001541
100.330492226094
100.331826559724
100.342073827197
100.278264771931
100.236925488859
100.266762026834
100.333989578113
100.36905625047
100.38973222781
100.395947538913
100.398208219098
100.401642389619
100.403033143193
100.402889590353
100.402600798135
100.40224537815
100.401771479891
100.401423430004
100.401280587444
100.401234119792
100.401263748075
100.401626806275
100.402497420394
100.403672212828
100.405041483481
100.407266527001
100.411651925864
100.420354133824
100.437729282818
100.462183182801
100.500196149258
100.495327454099
100.431240790952
100.373969562801
100.3157938388
100.283035520415
100.304245818664
100.303647317873
100.30131369326
100.301579406984
100.302664239594
100.303777609149
100.305058995402
100.306720477262
100.308709782707
100.310799923276
100.312698086777
100.314128492341
100.314868772266
100.313844547213
100.312560960753
100.311072497465
100.309434335948
100.307694769911
100.305854955686
100.30396453107
100.302168968112
100.300620650667
100.299394060845
100.298473179901
100.297840263648
100.29741716166
100.29714387207
100.296969759592
100.296859151769
100.296816175695
100.296858496863
100.297016720566
100.297367469924
100.297994818051
100.299154842761
100.300708400347
100.302064507979
100.30248908156
100.302418102177
100.302525386968
100.302443522791
100.302621421726
100.302518671047
100.302575227672
100.302508648483
100.302426335079
100.302209155593
100.301950735608
100.301974859072
100.302027598964
100.302388967867
100.302334306024
100.302250735859
100.302438838866
100.302515576891
100.302564589413
100.302529108331
100.302601917754
100.302462202628
100.302507019991
100.302419972394
100.302466127258
100.302112951549
100.301392741068
100.302257374354
100.302472921527
100.302447863297
100.30250718812
100.302486638305
100.302605969491
100.302549700546
100.302573173458
100.30253787054
100.302459447162
100.302505039116
100.302359154066
100.302480761748
100.302664852831
100.302627563316
100.302656324808
100.302573174685
100.302594224076
100.302578423457
100.302623333106
100.302514804821
100.302518055666
100.302467142263
100.302484127814
100.302250738796
100.301907463935
100.302421802309
100.302503714366
100.302512476383
100.302543333217
100.302556623103
100.302650583793
100.302624412622
100.302637177882
100.302658886872
100.302681889504
100.302782079107
100.302781002764
100.302726542569
100.302393670244
100.302140690272
100.302406737749
100.302707473295
100.302637649177
100.302848408979
100.302895875481
100.302856945924
100.302739889978
100.302760192603
100.302695309697
100.302603565812
100.302575040919
100.302557152127
100.302565849269
100.302449620887
100.302526795127
100.301932517551
100.301213387747
100.302223098756
100.302528224931
100.302528469249
100.302605280565
100.302639350585
100.302624865069
100.302679018632
100.302768490794
100.30279609341
100.302778281641
100.302802919328
100.302933708349
100.303003054334
100.302959488055
100.302829392296
100.302980368404
100.303176068131
100.30309903712
100.303096468151
100.303011302505
100.302865282475
100.302831652982
100.302846393544
100.302767253048
100.302706510326
100.302661740818
100.302687450743
100.302686169454
100.302589102953
100.302592424266
100.302257789181
100.301993660177
100.302510798587
100.302666393685
100.302668915468
100.302746288818
100.302744912825
100.302801188316
100.30282697919
100.302897231673
100.302926851775
100.302967583475
100.303126041321
100.303270905138
100.303192915258
100.303285546378
100.303192127353
100.303010486847
100.303050386249
100.303264200107
100.303397514824
100.303391456831
100.303244501514
100.303029329821
100.303305831696
100.30340649348
100.303541034903
100.303634602352
100.30363067888
100.303508092973
100.303473701568
100.303339338739
100.303116632312
100.303078397248
100.302980036301
100.302913482365
100.302869679753
100.302876395786
100.302808380458
100.302746470063
100.302751082682
100.30247520073
100.302453847355
100.302736019838
100.30282031171
100.302829511956
100.302884321202
100.302989805961
100.302955728109
100.303019481941
100.30305682291
100.303096821131
100.30313786067
100.303187074716
100.30341468662
100.303558447385
100.303663898843
100.3036239384
100.303639127141
100.30352837393
100.303502714549
100.303321055727
100.303243614432
100.303179403192
100.30312905698
100.303067416191
100.303001201219
100.303028507196
100.303004503195
100.302982648351
100.302893652092
100.302650871335
100.302829244614
100.302894824553
100.302962207891
100.303077296896
100.303067373528
100.303088352002
100.303178106401
100.303247320174
100.30329045378
100.303362615469
100.30359252512
100.303704909981
100.303688986976
100.303577444095
100.303368537211
100.30361229201
100.303677071435
100.303820527203
100.303819060241
100.303750897305
100.303650929682
100.303458788352
100.303398239509
100.303293995868
100.303339907877
100.303278837477
100.303206798006
100.303197095619
100.303145113055
100.303063722859
100.303090917162
100.303073590319
100.30270572012
100.302823860147
100.303016965961
100.302909580091
100.303170299047
100.303146723378
100.303253032199
100.303225319793
100.303317476686
100.303370392367
100.303439911181
100.303541979963
100.303553039849
100.303720755454
100.303844185041
100.303807650564
100.3038424251
100.303731478633
100.303779254387
100.303892169741
100.303942380004
100.303883369321
100.304032243132
100.304104528624
100.304086142599
100.303992233432
100.303881924897
100.303695416474
100.303589853171
100.303537199809
100.30348944076
100.303432209774
100.303360344142
100.303424959837
100.303253795869
100.303272507168
100.30316770456
100.303137974515
100.302789944817
100.302073150652
100.301161393399
100.30231018375
100.301570299678
100.300714706261
100.299782059672
100.298986456218
100.300461260148
100.299748815693
100.298401413769
100.297599618549
100.297114598908
100.296854374115
100.29675096485
100.296753582152
100.296845502733
100.297009976027
100.297271352613
100.297669348986
100.298261959092
100.299129484852
100.300299495728
100.301805571867
100.303569090964
100.305424445995
100.307196740077
100.308842782706
100.310392072197
100.311807627031
100.313027206702
100.314006273917
100.31467252527
100.315563758986
100.315991544441
100.315295548842
100.314258807335
100.312949668072
100.311425029514
100.309739867116
100.307953653693
100.306087354552
100.304193611472
100.30239357476
100.300829826714
100.29956333974
100.298616526023
100.297959289854
100.297522274301
100.297240977717
100.297058545461
100.296934440417
100.296865609965
100.296864244893
100.296964361088
100.29724075052
100.297779559716
100.298845939394
100.300351544035
100.301891632572
100.302485534014
100.302506952525
100.302542251576
100.302547119837
100.302649700792
100.302526009416
100.302651719758
100.302587904416
100.302528075876
100.302308198298
100.302022349149
100.301974421418
100.301468041641
100.300871275433
100.300094550662
100.300167232574
100.300375846378
100.300620122846
100.301043226303
100.301599597068
100.301519392039
100.301214631349
100.301046724946
100.300926884097
100.301482243735
100.301583488553
100.301753614148
100.302029448137
100.302284291802
100.302505599089
100.302156674579
100.301817302572
100.301352179296
100.300763897353
100.299825146076
100.300335312363
100.301083374471
100.301102532504
100.301636690323
100.301823975317
100.301337973503
100.301752029183
100.302044585391
100.30249240875
100.302453099613
100.302259487033
100.30264904429
100.302803965689
100.303010744503
100.302671159461
100.302309748562
100.30187315029
100.301158442788
100.30159065149
100.302062907043
100.302143910576
100.302665002058
100.302956337794
100.302467569145
100.302693232773
100.303049361966
100.303109300211
100.303405789212
100.303273377176
100.303048245521
100.303202254399
100.303231779596
100.303194106842
100.303028771356
100.302968941336
100.302890757034
100.302837770682
100.302740698333
100.302664075389
100.302576691648
100.30252597148
100.302511369168
100.302484065663
100.302448297174
100.302436406375
100.302419653263
100.302396546022
100.302378130543
100.302492665828
100.302423708593
100.302578784215
100.302424698395
100.302645743144
100.302518091488
100.302616290473
100.302545800342
100.302476271871
100.302241800991
100.302134333368
100.302346620887
100.302513655097
100.30258161561
100.30260386176
100.302604855113
100.302626795781
100.302619879568
100.302562292843
100.302324552486
100.302061504481
100.301534947965
100.300967228257
100.30015032018
100.300110379545
100.298981168424
100.297834289272
100.295958250535
100.296056976632
100.297575556505
100.297876817688
100.298970541263
100.299006135226
100.297933012157
100.298394534849
100.298882799031
100.299418736659
100.298046288254
100.296983816655
100.295377420866
100.296792523829
100.297363435608
100.298107438578
100.298737799529
100.299273742826
100.300077728358
100.30021692512
100.299855258073
100.29909207634
100.298370773003
100.298125441017
100.298834705535
100.298419171922
100.299481829563
100.301726745364
100.302097634794
100.302173502769
100.302130411781
100.302003618647
100.301904372831
100.30178000123
100.30194122077
100.301698799504
100.301630685334
100.301819077631
100.302468977605
100.302514872221
100.30255214887
100.302590939291
100.302542805508
100.302647676734
100.302632154956
100.302611806354
100.302601375706
100.302547333209
100.302283456499
100.302064384039
100.301493216408
100.300946211739
100.300155490766
100.298899357308
100.297827093907
100.295831987754
100.295822696865
100.293327189746
100.29027405264
100.290716802983
100.291264413668
100.292308427845
100.293386848038
100.294384095854
100.292202982768
100.290269734523
100.292048511723
100.293609812831
100.294530009047
100.295791022804
100.295873510114
100.29502109962
100.293634449271
100.293081551859
100.294495239867
100.295883264628
100.296456054358
100.296141434164
100.297567417055
100.298901643343
100.301308482784
100.301834152269
100.301596951928
100.300685344572
100.301400968083
100.301249680022
100.300290299447
100.301166284394
100.301153750876
100.301615770234
100.301808395992
100.302460531988
100.30250913642
100.302544318408
100.302579020239
100.302530106545
100.30258493616
100.302481903511
100.30260470765
100.302541280819
100.302494411767
100.302241631437
100.302018724991
100.301475830314
100.300890497847
100.300122562855
100.298937266014
100.297851394951
100.295961797658
100.293584741603
100.290652621875
100.290293843029
100.286530049218
100.282290736647
100.260137432463
100.259481331396
100.263207863447
100.280365639585
100.283153694889
100.282144101767
100.286445194184
100.287073204142
100.28786452255
100.281790509092
100.285394510936
100.287983968616
100.284424459444
100.279768046188
100.272019197729
100.27945938287
100.284703707976
100.28458445616
100.287329017381
100.289533144675
100.287588425699
100.2906278907
100.292119496023
100.29355429147
100.294733828715
100.294649544402
100.293052291572
100.291740621752
100.291376440746
100.292790402015
100.294020100581
100.294517129437
100.295068599437
100.293212554032
100.294146839173
100.29438386092
100.294565971947
100.294573901646
100.294883445273
100.294478568583
100.292742484925
100.293676430372
100.292424188199
100.295497398483
100.293967338134
100.293824982063
100.294081946525
100.294012903247
100.293589181789
100.29429391386
100.294221079229
100.293830743414
100.292631582138
100.291808632496
100.293627826235
100.292146999591
100.292077350205
100.292436495257
100.292900886881
100.29214343462
100.291774376829
100.291922852717
100.298753586395
100.298220547796
100.298064418717
100.298382518233
100.300026460139
100.302032822899
100.300527130204
100.300085137487
100.300481679498
100.297148958712
100.298458473761
100.297248324311
100.295194635785
100.29465648776
100.29643108173
100.29800521518
100.297059050145
100.296911699931
100.29579647484
100.295033550389
100.295614038307
100.295665472891
100.298777141049
100.300290828876
100.301840768565
100.302356607414
100.302472469403
100.302422484386
100.30215410519
100.302052510458
100.301734760613
100.301532609978
100.30096529272
100.300297741608
100.29995613477
100.299919886853
100.300320884988
100.301858574148
100.302456218166
100.302477444307
100.302511035481
100.30251519018
100.302605669906
100.302569848059
100.302438696472
100.302536235799
100.302467702009
100.302409138413
100.302181663085
100.301926977649
100.301455521497
100.300855101192
100.300068810959
100.299065067213
100.297883472766
100.296135639735
100.293950208411
100.29127908632
100.287979027752
100.281924225978
100.280532597776
100.264117172257
100.245710218902
100.168474663551
100.183966463824
100.202439233397
100.205743346473
100.202143274641
100.19709579797
100.207568594327
100.204008378556
100.198593300248
100.20964986247
100.206038604577
100.199065810408
100.20887117853
100.205496436852
100.198281611933
100.207631699478
100.204279241141
100.197111416257
100.206205810617
100.202911226738
100.195982021207
100.204066357229
100.201840277017
100.202389420054
100.201783682248
100.200518178385
100.200538196236
100.200770147984
100.200279293548
100.200265686159
100.200623683325
100.200138174899
100.199829004431
100.200358721446
100.200287974132
100.200007691009
100.200079821312
100.200264125817
100.200440736161
100.200908306462
100.200581928032
100.200264104809
100.199986452363
100.200555910751
100.200421847584
100.200091196138
100.199402366118
100.199340374762
100.199970405213
100.200347762555
100.200522043183
100.199963372225
100.200253052456
100.200579796498
100.200904310715
100.200419277803
100.200257300045
100.200087928987
100.200030454142
100.200296508809
100.200371340061
100.199825501982
100.200133570017
100.200613458607
100.200278670365
100.200299114769
100.200702354468
100.200488241469
100.200478054132
100.201728412486
100.202271227342
100.20173426106
100.203944486637
100.203193285786
100.204251974024
100.202600582112
100.201831406213
100.203495378181
100.203164574211
100.201674344707
100.201288683043
100.201554704892
100.199118500369
100.199928259381
100.20039855171
100.200487375325
100.200563370805
100.200303302183
100.199830862303
100.20031423277
100.199524300952
100.199543950839
100.200601204549
100.199613224731
100.201353368165
100.200882722569
100.200816050327
100.200512366971
100.200604064032
100.200461345935
100.200437334608
100.200480718982
100.200950189448
100.200290764022
100.200191548273
100.200156639495
100.200301034625
100.200837198149
100.200391709464
100.200399935668
100.200442561404
100.200560526494
100.200165568853
100.200311821621
100.200780389376
100.201534632995
100.200089009224
100.200103338263
100.19991509005
100.199927198172
100.200138226971
100.20010106626
100.201523908755
100.2007945692
100.200308786935
100.200148031776
100.200556222159
100.200746185159
100.200911746943
100.200921724088
100.200732601689
100.200604134223
100.200653784227
100.200640306809
100.200600897319
100.200720102915
100.200384117332
100.200395571552
100.200446472913
100.200973753017
100.20013479861
100.20035549806
100.20183591226
100.201339080539
100.201545702551
100.201160032555
100.202347286289
100.201669485669
100.200878326618
100.201253739093
100.201506294597
100.201519486394
100.201232142581
100.200855021498
100.201658097648
100.202334326624
100.201134254004
100.20152256013
100.2013623419
100.201836238034
100.200870442103
100.202648406617
100.20193667224
100.201824068589
100.200781737724
100.200696479879
100.200038591252
100.201119309927
100.1997619513
100.200872484498
100.201443019168
100.200425690095
100.201673838948
100.201222679466
100.203108544369
100.204082625518
100.201048930512
100.195892814293
100.20272816218
100.206021555434
100.196935305847
100.203994808507
100.207358279187
100.197982271066
100.205104169356
100.208513254198
100.198618065982
100.205510294926
100.20924170082
100.197955503186
100.203334408146
100.206688040517
100.196095376993
100.201368465068
100.202099751247
100.199684016826
100.196794762821
100.197064664253
100.202448755147
100.19965326442
100.197629849416
100.19370179725
100.19847984178
100.198448449379
100.193672468997
100.185904300597
100.186040186106
100.164885463418
100.237894948709
100.236801104122
100.164986086773
100.168510736139
100.183649138436
100.201767373476
100.20482619508
100.193511902718
100.188390237318
100.193565159866
100.19160468422
100.197724147684
100.206028659451
100.202020669857
100.202260474999
100.206249015013
100.203082249453
100.202402327321
100.204974663974
100.202269440011
100.201706853268
100.203385623782
100.201154371781
100.200857995038
100.201838663885
100.199929673129
100.203778560133
100.20283009
100.20110312045
100.201667797927
100.203022932622
100.201659647999
100.20131386411
100.200398246054
100.202617920297
100.202722470992
100.200219007242
100.204222489816
100.204771345789
100.201686994994
100.205086529671
100.206414297161
100.202804226376
100.206229651212
100.207382672108
100.20375378481
100.201385000151
100.18601621729
100.175969409581
100.177524984476
100.186850028185
100.184441254011
100.183200964569
100.190772234801
100.178863886698
100.182189357464
100.17634779708
100.176415547248
100.183423777252
100.229201068756
100.254479157902
100.230859363435
100.159388730474
100.160860838783
100.18534944644
100.152111735162
100.136435511598
100.205272217006
100.247674988609
100.270716165752
100.279956101626
100.285876126628
100.28811039668
100.287819522284
100.283128730171
100.275354759197
100.261686193019
100.268517270388
100.277070854655
100.284491175074
100.28812103896
100.291291406684
100.293911600296
100.294014569452
100.296500791786
100.29805523151
100.297276335417
100.297103814588
100.297070853192
100.297248824142
100.300239077497
100.300643968761
100.301903707261
100.302445596513
100.30236817039
100.302521150512
100.302355065005
100.302344454829
100.302513935524
100.302408692276
100.302462192853
100.302398506097
100.302320903389
100.302119399092
100.30186777338
100.301436159643
100.3008937374
100.300134311869
100.299183108778
100.298072243023
100.296408210928
100.294577996274
100.292361533767
100.2896360703
100.285540033897
100.281224778432
100.274762719713
100.254933141946
100.229335898512
100.184319874584
100.177241392036
100.176834967086
100.182834136096
100.194084963483
100.188512739168
100.193147782458
100.192164910353
100.198145372292
100.206076743796
100.201903015996
100.20221323374
100.206310491119
100.203106000324
100.20249734852
100.205060275856
100.20229364473
100.201786627556
100.203451072635
100.201176686829
100.20091900769
100.201830224046
100.199991758061
100.201831006905
100.204135116888
100.203148226782
100.201704272097
100.201293009955
100.201606923045
100.201819497259
100.203441319631
100.203193038307
100.204327234762
100.202631264152
100.202225540019
100.2029214791
100.201371148499
100.200840280788
100.202174303845
100.20384838387
100.202886247907
100.201131584522
100.201685950002
100.200431765861
100.201463399078
100.200861181875
100.199772543125
100.201146384517
100.20003571938
100.200694599325
100.200776978601
100.201841214923
100.201954748157
100.20265965652
100.200890228352
100.200209945751
100.20085672256
100.200205800509
100.200774561565
100.200413412197
100.200860876608
100.201514555099
100.201114194124
100.200470085754
100.200560834483
100.202977181006
100.205062696186
100.202703778669
100.201837707299
100.202007248528
100.202431743308
100.202183526347
100.202640681483
100.202646931928
100.202126371538
100.202370209752
100.201980953634
100.202659163787
100.205063716093
100.202986863767
100.20298528262
100.203822706402
100.202873723877
100.201966687317
100.20189641751
100.20230981674
100.20139772116
100.200561271943
100.202006449951
100.201303967999
100.200068252739
100.202530253207
100.202941433453
100.202190818657
100.201924177232
100.202664011968
100.204410992704
100.203661938286
100.20253457161
100.203368093425
100.206360863459
100.205655877659
100.202306965988
100.202962603978
100.208030936503
100.208666122548
100.201508755331
100.188434220253
100.182609393083
100.177097274707
100.180064313796
100.180967868857
100.184559649491
100.185073163902
100.181463109445
100.174146987004
100.173481330975
100.174126690666
100.17018660606
100.15922471241
100.162590905402
100.177977251595
100.175715257147
100.177154221319
100.195892309088
100.198181628365
100.210709176504
100.229359611359
100.217741235518
100.223070360168
100.242944521715
100.261884598947
100.244314821906
100.264817231751
100.276163475404
100.281107329903
100.274566283868
100.273808285767
100.281518769887
100.287277461457
100.290890946104
100.293536545064
100.293154576395
100.292613130896
100.292224376759
100.297151979657
100.297824192828
100.298225747061
100.296225266354
100.297029646443
100.299130186743
100.296963516387
100.298943381141
100.299747446779
100.301665894628
100.301884441135
100.301542628248
100.302172475455
100.299406774006
100.300385827383
100.30042050007
100.299751979597
100.300317286448
100.299740138356
100.299773691356
100.29967402732
100.299671140534
100.299766685981
100.300112899239
100.300205656946
100.30041292254
100.300580664399
100.30045968358
100.300036635563
100.299467039394
100.299326112792
100.299612102757
100.299777827505
100.299885182947
100.299761587656
100.299728296639
100.299766792826
100.299657199334
100.299667110029
100.299528114537
100.299452828322
100.298830632074
100.299041304921
100.299192499395
100.29953899432
100.299837344155
100.299843606158
100.299528120565
100.299283854168
100.299585230296
100.299755308175
100.299684455941
100.299510378624
100.299944659881
100.299690621766
100.299520233572
100.30036023257
100.300985854795
100.300524838442
100.300553783499
100.300210869585
100.299775799235
100.299597016921
100.300257879798
100.300813572147
100.300782163192
100.300256470575
100.300506041565
100.300968382689
100.300902173436
100.300784736509
100.300306112851
100.300363995911
100.30086989884
100.300937434256
100.301115681673
100.301108339598