/*--------------------------------*- C++ -*----------------------------------*\
| =========                 |                                                 |
| \\      /  F ield         | OpenFOAM: The Open Source CFD Toolbox           |
|  \\    /   O peration     | Version:  v1612+                                |
|   \\  /    A nd           | Web:      www.OpenFOAM.com                      |
|    \\/     M anipulation  |                                                 |
\*---------------------------------------------------------------------------*/
FoamFile
{
    version     2.0;
    format      ascii;
    class       volScalarField;
    location    "0.6";
    object      p;
}
// * * * * * * * * * * * * * * * * * * * * * * * * * * * * * * * * * * * * * //

dimensions      [0 2 -2 0 0 0 0];

internalField   nonuniform List<scalar> 
80212
(
100.33533390105
100.334720664653
100.334673216429
100.33743129853
100.340982271351
100.340957204921
100.341273126614
100.3411936275
100.34171437601
100.34322453822
100.342550920725
100.341587680032
100.341901702813
100.343021890409
100.343644141076
100.341868271406
100.341297771478
100.341284142375
100.340967085576
100.340983414157
100.341552788688
100.341781743767
100.342661749765
100.344417094913
100.342824744081
100.340758294644
100.339810747341
100.339633350346
100.340066984916
100.340436195664
100.343042167157
100.342832409641
100.342087610479
100.341703634744
100.340271943853
100.340568907284
100.341294650893
100.340512662574
100.341963307778
100.343931723235
100.343852533583
100.341877559235
100.340461785864
100.341274989317
100.340554371322
100.34025172964
100.341676396966
100.342061865991
100.342796841111
100.343029213635
100.340426451751
100.340060778545
100.339634507173
100.339812890707
100.340760385105
100.342826513105
100.344417439058
100.342661498791
100.341786366551
100.341558114228
100.338465842837
100.338782956521
100.338237910533
100.338481146373
100.338221448475
100.338126690837
100.337692077601
100.337428894784
100.337923402067
100.337872680005
100.338227026822
100.338142748959
100.337931533578
100.338457317885
100.337766515467
100.337317190635
100.337564067712
100.337549843013
100.337623671306
100.337353827447
100.33734776693
100.337617562851
100.33754259203
100.337563115072
100.337335224632
100.337807646739
100.338499604764
100.337969527471
100.338166692288
100.338238976905
100.337876280352
100.337924498602
100.337426600028
100.337692833793
100.338125078622
100.338216039536
100.338477684774
100.338234485758
100.338775983161
100.338459266371
100.337435907957
100.337525873118
100.338707720766
100.339126886449
100.338569321479
100.339206124405
100.338694483355
100.338453186292
100.338615121696
100.33899773633
100.339385093561
100.338625297361
100.339161898897
100.338730833403
100.337534250386
100.334764410288
100.336354764675
100.333907637642
100.333990904162
100.334134891252
100.336852443591
100.335175155647
100.333203251668
100.334265852223
100.335217080573
100.335336427121
100.335042490525
100.335975396573
100.336167246616
100.335058125726
100.335391054587
100.335283040024
100.335239581809
100.334951388735
100.333816063004
100.33319903954
100.335044958046
100.334388479552
100.333428896899
100.333419364931
100.33439222884
100.335021564847
100.333176910584
100.333821204362
100.335008803431
100.335301643041
100.335342023228
100.335426937081
100.33507143019
100.336168158421
100.335975563037
100.335041874616
100.335335997486
100.335214694895
100.334262456603
100.333197208463
100.335171159874
100.336842624367
100.33601506441
100.33467264369
100.334738095041
100.336303837935
100.337447552721
100.33560570289
100.333700156034
100.334456221315
100.335265898014
100.335359143721
100.334649299023
100.333885200258
100.335757356888
100.337538758808
100.333918056061
100.324738289928
100.32529912944
100.325446705584
100.325007999917
100.325855571925
100.334208411378
100.334593029242
100.334625489137
100.335469273047
100.337173966881
100.334578679242
100.333787097586
100.332601504923
100.33581864245
100.333551441385
100.332993214303
100.331660215443
100.332812998699
100.332297223999
100.336219181584
100.336264397037
100.332326792911
100.332901903402
100.332027188315
100.333141560662
100.331617812231
100.334217695428
100.334729917722
100.335250224856
100.333694140582
100.335944152003
100.332639072718
100.333787469803
100.334580065954
100.334200338057
100.334121484371
100.333979704034
100.333910705113
100.333928385949
100.333722928117
100.333694936572
100.325640939604
100.324112482921
100.323823395259
100.324101753538
100.324140120351
100.323914163409
100.324283740239
100.32438640486
100.32574663275
100.325633431713
100.325827681679
100.326865685929
100.332014227139
100.331408049831
100.328047388557
100.326374045907
100.325290294343
100.325387159749
100.327228329445
100.326772889292
100.326740181015
100.327155690953
100.326772923747
100.325755223593
100.325601035337
100.325730428944
100.32585135962
100.325006664345
100.325451231097
100.325313773782
100.324768848389
100.325675412993
100.324118949458
100.324668154888
100.324667743912
100.324644647679
100.324777830309
100.324800043749
100.324741907437
100.324868827961
100.32499110681
100.325181636645
100.324568872109
100.324889429235
100.325151219758
100.325205492838
100.325194794642
100.325491695872
100.325744655985
100.325696533835
100.325268883771
100.325173635506
100.324814367451
100.324532962932
100.324369057631
100.324275614801
100.323909069332
100.32414860248
100.324105417537
100.323822122766
100.324633013415
100.324465245466
100.324465764799
100.324465433465
100.324462898342
100.324577335868
100.324609669106
100.324611623071
100.324707745196
100.324732084755
100.324877549659
100.324769049417
100.324753644013
100.324718524666
100.324832030569
100.324838990634
100.325480088417
100.325120328337
100.325127065877
100.325116208639
100.32517500354
100.324987796685
100.324866877407
100.324746520673
100.324799354942
100.324772559473
100.324582275268
100.323524089663
100.323425298563
100.323438721265
100.323436295508
100.323417749274
100.323514297136
100.323563471965
100.323585547698
100.323723123353
100.323739686517
100.323838156044
100.323790001897
100.323829933045
100.323820923478
100.323880113117
100.323892375312
100.323854046628
100.323882018538
100.324776537859
100.324775318133
100.324882037101
100.324741265879
100.324712811405
100.324620203792
100.324611729624
100.32357145739
100.322357662847
100.322283156977
100.32219051699
100.322202546506
100.322198970099
100.32218220417
100.322269375826
100.322340375452
100.32239856755
100.322578074312
100.322642061175
100.322757274754
100.322776793869
100.322874427142
100.322905140151
100.32296014349
100.322955312871
100.322901208599
100.322878782049
100.322785497181
100.323818147173
100.323862926193
100.323747160095
100.323739390388
100.323601488844
100.322417219418
100.321280377602
100.321178252465
100.321064441389
100.32094851189
100.320948831827
100.320944026316
100.32093687033
100.321045697631
100.321153740562
100.321256218155
100.321500895135
100.321630182096
100.321795654222
100.32186939116
100.322021100845
100.322088650929
100.322162740106
100.322167049821
100.322092793411
100.322029593972
100.321895476871
100.321833758758
100.321664510157
100.321535289091
100.320425274722
100.320086111114
100.319917454202
100.319735983873
100.319566489796
100.319549357753
100.319543460154
100.319548242622
100.319710462828
100.319883166689
100.320045124235
100.320380139561
100.320613551693
100.320850570353
100.320994488233
100.321219520441
100.321333271235
100.321465067015
100.321501751575
100.321434265886
100.321323083769
100.321069533661
100.320906854741
100.320661821453
100.319501561731
100.31911177379
100.318600664704
100.318377878492
100.318086550102
100.317823013671
100.317797627947
100.317789035218
100.317799636469
100.318052205154
100.318330591931
100.318542011265
100.319047594694
100.319432681702
100.319782845365
100.320043339512
100.320415709804
100.320565724144
100.320831435035
100.320884521073
100.320705485318
100.320553756006
100.320153954734
100.319862109651
100.318509769058
100.317996030194
100.317352025166
100.316498297377
100.316288083255
100.315842369262
100.315436273236
100.31543167151
100.315419724963
100.315404924558
100.315795495611
100.31622374018
100.316417267177
100.317262239216
100.317899418828
100.318412571827
100.318889382113
100.319551279065
100.319643314153
100.32017796687
100.320211254542
100.319748000767
100.319649661627
100.318996101412
100.317416463311
100.316362800703
100.315590943428
100.314733771307
100.313214228234
100.31308353783
100.312470927395
100.311672067957
100.311847015682
100.311828647381
100.311623644094
100.312407916955
100.31299534878
100.313105938646
100.314605198974
100.315454873055
100.316233822852
100.317307394013
100.318479659158
100.318287217238
100.319361749846
100.319392643159
100.318341737133
100.318548436823
100.317762654488
100.315228182153
100.311466832711
100.311061604642
100.309978701956
100.30708465377
100.307256327539
100.306479135141
100.304728495407
100.305659370026
100.305647779658
100.304680719707
100.306395772717
100.307122416078
100.30694063978
100.309768183801
100.310856995918
100.311250801199
100.315067427242
100.317656883996
100.316341732854
100.318687482817
100.318729543399
100.316388991058
100.315211988244
100.310616661535
100.304817413091
100.303316588865
100.305247122501
100.303461714865
100.298480959349
100.299073386173
100.298099053445
100.294828499475
100.297013194833
100.297027221883
100.294799500901
100.297996246614
100.298896045145
100.298212934897
100.303184066483
100.304934220709
100.302947709594
100.304599085484
100.310499566148
100.315109065309
100.31122404814
100.30993877326
100.309915384847
100.311213329278
100.326172580199
100.327354099419
100.324854481816
100.319163373014
100.318015259465
100.314497949137
100.3095425565
100.308916809822
100.307867388112
100.304599033431
100.305659110749
100.30565325799
100.304583735128
100.30776646904
100.30871682505
100.309156431597
100.314046001554
100.317514645558
100.31864405039
100.324524300111
100.327131652743
100.32606040145
100.331473077176
100.331503136974
100.371490667722
100.367538341483
100.363475979883
100.361567287543
100.35590816472
100.350757935867
100.34504756848
100.345882941954
100.338328572282
100.338464964088
100.336423361278
100.345517745853
100.362867906935
100.362993869972
100.345575700865
100.330632036589
100.330595663037
100.378776373931
100.414834655348
100.395065247932
100.395288598644
100.403477675071
100.394478292743
100.378405505175
100.336489011551
100.338352761439
100.338117779189
100.345391994759
100.344376594922
100.350004209148
100.355182071384
100.361120352311
100.363140024508
100.367384810495
100.371422660858
100.413486922259
100.413557638796
100.428941705156
100.417423387144
100.408929896108
100.404241265305
100.401551543936
100.408235834527
100.388615842903
100.38179230839
100.396260656593
100.383172434224
100.390421499744
100.391544331025
100.394192332848
100.402946720118
100.435765503297
100.430080685671
100.430343421258
100.436556963306
100.423260936798
100.424702590901
100.426727547586
100.390199204089
100.376434556562
100.391669447134
100.428760853568
100.448199773587
100.463049491747
100.470880592927
100.475941637801
100.480558117291
100.48283789177
100.483979726653
100.484669350055
100.484998306036
100.48515143959
100.48528313198
100.485428191504
100.485598681076
100.48581289717
100.486079887745
100.486413515934
100.486856817348
100.487558157505
100.488845430466
100.49121523699
100.495515994569
100.502387704401
100.513481775269
100.524283675561
100.542267758531
100.530738692639
100.480868087079
100.432452744881
100.381428933834
100.35348585401
100.371385922576
100.372093751514
100.369920816197
100.369880582254
100.370900516273
100.372046088085
100.37325994601
100.374691688884
100.376294904696
100.37785574033
100.379141776951
100.380014508717
100.380416544999
100.379948021871
100.379289758238
100.378387682695
100.377247283862
100.37587307817
100.374226889064
100.372347458451
100.370410660206
100.368580517646
100.3669909956
100.365670636541
100.364608675647
100.363776795637
100.363177877481
100.362892515162
100.362998124587
100.363572612755
100.364619239747
100.366094287427
100.367765956112
100.369337347732
100.370423334777
100.370778530861
100.3707365932
100.37073746121
100.370682807817
100.37067333162
100.370668264547
100.370645075147
100.370660105647
100.37068831998
100.370822537966
100.370925588271
100.370980618081
100.37102611404
100.371036433241
100.370857202415
100.370803187767
100.370798574611
100.370759930075
100.370828374684
100.370774539347
100.370644062042
100.370630237711
100.370620742091
100.370644752806
100.370644445025
100.370643133091
100.370650558456
100.370701664258
100.370726466606
100.37066034128
100.370647578774
100.370668857619
100.370636532415
100.370623803742
100.370619737094
100.37060712387
100.370599389135
100.370581044394
100.370724895397
100.370580127181
100.370632370576
100.370673231899
100.370530506164
100.37045695383
100.370561203088
100.37056841991
100.370565929543
100.37057835047
100.370584150378
100.37060398893
100.370555432663
100.370534886884
100.370370388276
100.370020875705
100.370365512863
100.370519716071
100.370514015003
100.370546468256
100.370524451276
100.370535126148
100.37052898032
100.370539004879
100.370456698959
100.370610047275
100.370705149706
100.370735603917
100.370566260636
100.370555173214
100.370622425382
100.370591025404
100.370572092231
100.370631511504
100.370517098223
100.370608656127
100.370638245777
100.370593803603
100.370455940894
100.370487183783
100.370471256757
100.37048683341
100.370469157719
100.370490898417
100.370452383921
100.370441640183
100.370291987246
100.369844625307
100.370284227222
100.370401235455
100.370400629174
100.370435723839
100.370416756769
100.37043073804
100.370440318751
100.370450526063
100.370401990864
100.370562942153
100.37059611765
100.37046307534
100.370524818543
100.370591086522
100.370460962469
100.370459891251
100.370402944981
100.370517887176
100.370382734045
100.370416412231
100.370401497398
100.370366959669
100.3703783948
100.37036889202
100.370370508627
100.370345490637
100.3703244787
100.370206899942
100.369799931929
100.370207615273
100.370298523492
100.370309656394
100.37031978597
100.370329460787
100.370331716836
100.370343830312
100.37035949202
100.370314582648
100.370325239583
100.370265461465
100.370386564556
100.370537623998
100.370401080451
100.37034636669
100.370307279936
100.370371051157
100.370296784921
100.370448504436
100.370348163753
100.370228696326
100.370237126161
100.370305820018
100.370291339336
100.370287518774
100.370270393598
100.370268930515
100.370256953025
100.370166634789
100.369770983517
100.370216804806
100.37022631286
100.370241593811
100.370223792079
100.370232848294
100.370231662703
100.370244199588
100.370220604491
100.370197362545
100.370151032378
100.370195024196
100.370203306978
100.370247534073
100.370283207547
100.37019732351
100.370139482291
100.370113665087
100.37013717318
100.370102286452
100.370156883137
100.369761354639
100.369614827252
100.369798599879
100.369755781759
100.369953250227
100.369847703358
100.370040194019
100.370105523764
100.370095285381
100.370149894372
100.370212190779
100.370167203998
100.370181504568
100.370218511641
100.370214271514
100.370195612524
100.370187307131
100.370141897028
100.37015281738
100.369383063357
100.368037095889
100.369662459945
100.370226157708
100.370118212438
100.370175377176
100.370172375486
100.370189054153
100.37014220281
100.370107850977
100.370140747311
100.370128554717
100.370059693931
100.370019325527
100.370005874727
100.369883659814
100.36982691386
100.369967744669
100.369991144597
100.370034628214
100.370002857596
100.369927253438
100.369790336118
100.369519059755
100.369305274185
100.369211607821
100.369473292593
100.369413358545
100.369734679765
100.36989648198
100.369985312908
100.370038410168
100.370122560636
100.370077883599
100.370052179493
100.370081902171
100.370136755479
100.370129632471
100.37016209425
100.370104185768
100.370194740835
100.369750690839
100.368110544176
100.370010994762
100.370217123112
100.370135023146
100.370143481067
100.370149667859
100.370142397493
100.370140697727
100.370154742507
100.37018468509
100.3701719608
100.369621939963
100.367815654458
100.365574223027
100.368397477967
100.369898335435
100.370181443569
100.37019812824
100.370175123088
100.370141259659
100.370108881521
100.370120466982
100.370132827711
100.36998770117
100.369921552735
100.369809312126
100.369596835235
100.369402466554
100.369661398099
100.369826838525
100.369955815823
100.369932754182
100.369771107652
100.369501275218
100.369119179139
100.368716856085
100.369270745214
100.369235600702
100.369575652873
100.369464584828
100.369760382184
100.369926323623
100.369956888943
100.370109562695
100.370069356166
100.370077556408
100.370086960052
100.370147342308
100.370199034512
100.370185700926
100.370229878991
100.370243464412
100.37003969023
100.368722113809
100.366202319111
100.369415136232
100.370284540702
100.370331443374
100.370278435927
100.370211630295
100.370193656559
100.370173434453
100.370289713232
100.370093707072
100.370147050795
100.370073983496
100.369926859615
100.369730266453
100.36943320455
100.369078455775
100.368470059369
100.369148409907
100.369149906276
100.369503937646
100.369469772923
100.369745602749
100.369939953796
100.369949213269
100.370103922546
100.37008660861
100.370209689673
100.370267524665
100.370279920127
100.370366822543
100.370333881668
100.369938656564
100.368736685663
100.366592824915
100.365198873903
100.368034525682
100.369543281852
100.370200252055
100.370383215359
100.370357537854
100.370312000196
100.370300730529
100.370098994603
100.370147938821
100.370079054384
100.369924602877
100.369714480131
100.369451830665
100.369073135565
100.368429784853
100.369025520955
100.369437694262
100.369501528404
100.369729958593
100.369765765636
100.369950999337
100.369971956972
100.370125233087
100.370114418123
100.370239296487
100.370302187418
100.370387961937
100.370387559359
100.370363733501
100.369975194468
100.368748622447
100.366961129873
100.369781703366
100.370390879775
100.370430663074
100.370399723093
100.37033253832
100.370272838379
100.370111563883
100.370135054437
100.370153988216
100.370155286185
100.369955695395
100.369963612103
100.369747594121
100.369468786751
100.369079069538
100.368424812367
100.369026514798
100.369421465028
100.36973098755
100.36993558663
100.36995977997
100.369761654323
100.369454087356
100.369118987797
100.368481851825
100.369015129623
100.369237801527
100.369565418777
100.369617580012
100.369832828909
100.369996555056
100.370016258432
100.370163949996
100.370118442621
100.370140639073
100.370136195739
100.370307007315
100.370319085569
100.370351342627
100.370399174337
100.370423494181
100.370340069434
100.369648134846
100.367952552537
100.367048453631
100.369598751618
100.370310803958
100.370399521187
100.370375478764
100.370340159003
100.370281934329
100.370242153223
100.370291053005
100.370280431758
100.370138598687
100.370184108216
100.37021801892
100.37025940583
100.370079771313
100.370092745668
100.369941900228
100.369745612901
100.369404972338
100.368939086917
100.369418000761
100.369717879073
100.369933453318
100.370069842916
100.37013490888
100.37002004066
100.369812561086
100.369588602416
100.369093177141
100.369490547253
100.369771178767
100.369955505071
100.369959497872
100.370089116293
100.370185002042
100.370258739944
100.370293189384
100.370271904756
100.370268336716
100.370199438967
100.370327864486
100.37030718133
100.370353843353
100.370397680168
100.370378752302
100.370288654796
100.369605731176
100.368013674206
100.367528501827
100.369537254518
100.370269295851
100.370401077993
100.370472657801
100.370411322487
100.37034893937
100.370344432718
100.370355714066
100.370379128464
100.370435997188
100.370488793268
100.370586560226
100.370482775544
100.370028259942
100.369446680592
100.370491445513
100.370645328869
100.370601845771
100.370541224244
100.370484123513
100.370475010782
100.370370738578
100.37038142498
100.370388474502
100.370459654017
100.370358567669
100.370294379287
100.370212449421
100.370084157971
100.36986119109
100.370003608027
100.370208269557
100.37029624771
100.370374563854
100.370309306182
100.370154008297
100.369973628661
100.369780380093
100.369987749499
100.370167594534
100.370315415349
100.370388680433
100.370446895301
100.370473291063
100.370473171587
100.370492955907
100.370564911047
100.370573062788
100.370637049245
100.370692091052
100.370774049547
100.370662388303
100.369981950002
100.369899723454
100.37070498773
100.370845743052
100.37078814916
100.37072376377
100.370668317071
100.370649332767
100.370522078824
100.370519417981
100.370512897536
100.370416418327
100.370366136282
100.370279321451
100.370203126325
100.369939013769
100.370134470133
100.370256982477
100.37034271582
100.370424755826
100.370538966055
100.370542998932
100.370601693332
100.370665293827
100.370702916484
100.370721108089
100.370794065737
100.370858071436
100.370951073623
100.37093095718
100.370373464512
100.370556015414
100.370991604013
100.370919400645
100.370906453431
100.37083670609
100.370770222451
100.370716231551
100.370665485876
100.370595317828
100.370593548435
100.370468887383
100.370401412456
100.370367056815
100.37037093392
100.370202215336
100.370341537655
100.370379311589
100.370428745525
100.370484571392
100.370602611389
100.370644794184
100.370514560119
100.370495370182
100.370482842679
100.370587524011
100.370465998469
100.370563647072
100.370537722562
100.370512811546
100.370495531631
100.370639113676
100.370661989828
100.370690858818
100.370707335866
100.370758493534
100.37080744517
100.370874630883
100.370939721471
100.370996159541
100.371079645135
100.370724836825
100.371038513935
100.371050801964
100.371013752262
100.370955238386
100.370896782794
100.370830627097
100.370782911302
100.37071896694
100.370697229075
100.370658918303
100.370522506013
100.370596030592
100.370691064272
100.370861506782
100.370774680757
100.370843474867
100.370726018302
100.370619760876
100.370526964061
100.370665140863
100.370708137062
100.370592577627
100.370732728466
100.370868484243
100.371060827884
100.370990915771
100.371034791928
100.370888818417
100.370774882891
100.370599082141
100.370715176411
100.370746985106
100.370748780865
100.370747358386
100.370822453839
100.370888556067
100.370910266128
100.37096065176
100.371051478962
100.371148109125
100.371078002171
100.371268986259
100.370934752819
100.369617212901
100.370070134168
100.368486970435
100.36916754058
100.36742591278
100.368343583473
100.366430680294
100.364677654717
100.365601525346
100.364066630716
100.365135213167
100.36391381969
100.363446137914
100.364241590313
100.363820076539
100.363671525543
100.365340736942
100.365515700008
100.365776389175
100.367947379541
100.368152366695
100.368368953658
100.368647032562
100.368937817734
100.370120365719
100.369843347923
100.37017767483
100.37046350528
100.370669061457
100.370876813795
100.370803060771
100.370796282364
100.370774406343
100.370792082999
100.370773167565
100.370791253161
100.370795579548
100.370913875923
100.371018611405
100.371146872589
100.371253437422
100.371266053087
100.37114938144
100.371129637281
100.370975177979
100.370749500662
100.370677987513
100.370773897116
100.370781903274
100.371001994325
100.370840475365
100.370742177723
100.370724088449
100.370626178655
100.370390561614
100.369975456051
100.369608659489
100.369835093965
100.369983410996
100.369940052058
100.369861487547
100.370079388382
100.370107930587
100.370217219753
100.370254482353
100.370211003493
100.370307312803
100.370464246286
100.370408094036
100.370391960675
100.370294570698
100.370555821913
100.370455160744
100.370502978429
100.370547672431
100.370580816336
100.370636864947
100.370670487017
100.370725267089
100.37073128964
100.370721062601
100.370715243914
100.370687892589
100.370769267559
100.370910418144
100.371039485809
100.371141478356
100.371153479104
100.370942641806
100.370783999368
100.370591830316
100.370609929498
100.370660094484
100.370594308195
100.370621349405
100.370850966404
100.370876686609
100.371002995997
100.371103203088
100.37122872098
100.371362236094
100.371381808645
100.371367306358
100.371215264396
100.371010053001
100.370878879248
100.370516454288
100.370081323438
100.369602209521
100.369788339594
100.369906511745
100.369885859993
100.36978343745
100.369733299571
100.368926273739
100.368397106425
100.368271511531
100.368232040181
100.368121689225
100.368435081416
100.368768087266
100.368892979115
100.368885289199
100.368497034427
100.368939169735
100.36927114715
100.369376293266
100.36927340096
100.370379423033
100.370703652386
100.370601636145
100.370689906862
100.370716433803
100.370774537086
100.370811148457
100.370814624994
100.370765981575
100.3707616983
100.370795599824
100.370808356769
100.37082209879
100.370815593361
100.370832730098
100.370813060929
100.370870882508
100.370913283694
100.370940826051
100.371065089277
100.371190184269
100.371352869958
100.371495504488
100.371518236141
100.371535205349
100.371381453972
100.371156788524
100.370793391024
100.370346185377
100.369846974775
100.369723717965
100.368951041343
100.368554880693
100.368444093354
100.368356714878
100.36827682289
100.368038884941
100.368142471351
100.368504129205
100.368764340585
100.368772796767
100.368852695894
100.368515434142
100.368959184628
100.369234682081
100.369006935049
100.369808056363
100.370215866479
100.370778916339
100.370889481354
100.370875031132
100.370844535373
100.370846097087
100.370853706884
100.370879567947
100.370936190046
100.370931342753
100.370972213976
100.370987243235
100.371150833445
100.371311105096
100.371478531124
100.371627308698
100.371664307733
100.371669590212
100.371512271612
100.371266231741
100.370907490533
100.370454574599
100.369923766055
100.369185451059
100.368858563997
100.368739794645
100.368338093922
100.368077736243
100.36796973759
100.367802602599
100.367593672909
100.367826545751
100.368116014639
100.36785100895
100.367695926576
100.367489334829
100.367219826243
100.36696427026
100.366784230232
100.366629291172
100.366600904375
100.366881035384
100.367130915559
100.367305699265
100.367548420784
100.367716998043
100.36730467786
100.367426283073
100.367751830181
100.367828268487
100.368833414492
100.369614011551
100.370305787985
100.370756130129
100.37077461095
100.370856121534
100.370921368279
100.371014706758
100.370939765653
100.370913810472
100.370875862547
100.370896253679
100.370939531593
100.370987670596
100.370976931798
100.371035862305
100.371084949666
100.371284906194
100.371462752211
100.371631537958
100.371799485547
100.371834137372
100.371840356727
100.371665639269
100.37140474829
100.371020000649
100.370568904169
100.370050714524
100.369311326787
100.368992317861
100.368659079824
100.368452708364
100.368412630251
100.368171913145
100.368020857735
100.368350632131
100.368105742038
100.367870763947
100.36763913326
100.367300403143
100.36699239346
100.366507526734
100.366758280824
100.367169191744
100.36745723946
100.367581047319
100.367794274531
100.367766515814
100.367533633231
100.366667323289
100.366886673027
100.367211033651
100.367466044067
100.367745622551
100.367245866255
100.366633954449
100.365815065651
100.36501926821
100.363278778404
100.36359651138
100.364384507791
100.365228964404
100.365892947688
100.366485858396
100.36697970577
100.368127899561
100.365654813053
100.365250630117
100.364957757315
100.364618805677
100.364022285418
100.363365220013
100.361796624004
100.360842926901
100.357086921597
100.36223212495
100.363527286814
100.362661607926
100.36098684398
100.360284425395
100.359547810615
100.35852234573
100.357631908608
100.35821866961
100.360442972134
100.360434592188
100.361380663677
100.362425600483
100.363686391497
100.364559215405
100.365458508819
100.366147297214
100.36680647604
100.36729218717
100.367713897223
100.367399902611
100.368420042485
100.36618617501
100.371144726238
100.371307448795
100.371153505562
100.370834448803
100.370369457379
100.369588893552
100.368408896862
100.366686042656
100.365358986149
100.364338137829
100.367652992076
100.368460984825
100.365677376257
100.36251987577
100.361230143873
100.360055481377
100.355334022787
100.357163838855
100.355946681979
100.355480155733
100.356890024682
100.357092847534
100.363713344457
100.36715906904
100.369378273244
100.369397542619
100.369602909724
100.368371043609
100.368709239561
100.369059348139
100.36947622129
100.369779626244
100.370240441746
100.370877765482
100.37101965598
100.370974095683
100.370892757489
100.370903711624
100.370941890055
100.37099370973
100.371051905297
100.371030307056
100.371122497135
100.371172045965
100.371369296294
100.371581876785
100.37176981918
100.371942571535
100.371978452482
100.371985006924
100.371769604187
100.371507930642
100.371076655606
100.370606555831
100.370111816316
100.369398939773
100.369104185795
100.368771833291
100.368593950214
100.368585998267
100.368501298221
100.36878866624
100.368600659762
100.36868412632
100.368867406705
100.369019675282
100.368813838726
100.368640631089
100.36828652089
100.368420389588
100.368636772891
100.368437409958
100.368181789041
100.367820423011
100.368297977186
100.36791410608
100.367556345326
100.367204263022
100.366821038494
100.366384947819
100.365996648623
100.36525737076
100.365598815452
100.366130839412
100.366560646679
100.366820305614
100.367159510451
100.367515884804
100.367491487537
100.367170573574
100.366540975091
100.366012256682
100.365833412073
100.366474913629
100.366727389232
100.368620655649
100.369566035126
100.369818877527
100.370027423282
100.371075400768
100.371125598259
100.370976504264
100.370937942462
100.370974165389
100.371032454232
100.371085702464
100.37108605662
100.37121346006
100.371246197967
100.371425106395
100.371723574044
100.371942821212
100.372097581996
100.372124252359
100.372132303501
100.371897444072
100.371629892674
100.371205030018
100.370758772475
100.370228434583