/*--------------------------------*- C++ -*----------------------------------*\
| =========                 |                                                 |
| \\      /  F ield         | OpenFOAM: The Open Source CFD Toolbox           |
|  \\    /   O peration     | Version:  v1612+                                |
|   \\  /    A nd           | Web:      www.OpenFOAM.com                      |
|    \\/     M anipulation  |                                                 |
\*---------------------------------------------------------------------------*/
FoamFile
{
    version     2.0;
    format      ascii;
    class       volScalarField;
    location    "0.4";
    object      p;
}
// * * * * * * * * * * * * * * * * * * * * * * * * * * * * * * * * * * * * * //

dimensions      [0 2 -2 0 0 0 0];

internalField   nonuniform List<scalar> 
80683
(
100.071461376319
100.073430777462
100.070270190505
100.074596458416
100.081622834978
100.081759146647
100.07981227564
100.080362849232
100.080347883836
100.080727808563
100.08122524872
100.08099408501
100.082719098041
100.082334475383
100.08487514514
100.084876899096
100.081448259769
100.076633966901
100.075547985019
100.075499446697
100.076503311197
100.076359267966
100.075576099344
100.077016059504
100.083463081313
100.083512790151
100.077798729618
100.075992361757
100.075886876526
100.075173908269
100.075042054238
100.076027448523
100.07597777084
100.077727886413
100.083276435078
100.083106829258
100.076909396688
100.075528067113
100.07626076871
100.076214395556
100.075332373055
100.075382190824
100.076505718957
100.081244761667
100.084516307784
100.084367491691
100.077424959026
100.076910655483
100.074716679733
100.074198523927
100.074125228811
100.073754399971
100.073219701824
100.072083661112
100.073175027376
100.07432608344
100.074488531152
100.073652766794
100.072618827116
100.071467237217
100.071095583963
100.071685932795
100.071611789397
100.070936045841
100.071489556994
100.072619851597
100.073596573534
100.074578571469
100.074551243418
100.073360636596
100.072261897632
100.073438319147
100.073864770708
100.074194983416
100.074198198301
100.074699400931
100.077136793155
100.077844693781
100.07523861529
100.078394316156
100.081511600168
100.083164070069
100.081006569346
100.080755807492
100.081919331838
100.079913709875
100.077434429851
100.073239058974
100.078540618001
100.066638567777
100.054611367525
100.060328971414
100.061447689666
100.073635432342
100.069535111293
100.070750197816
100.07290503498
100.070909119493
100.069494829706
100.068981511551
100.071555253758
100.073055195173
100.068991030658
100.068050705909
100.070387043739
100.067593388274
100.066474615021
100.067504698196
100.067509162249
100.066525926026
100.067608845776
100.070339139255
100.068010583476
100.068809863965
100.073293722589
100.072082759718
100.0693179688
100.069683824728
100.071012704744
100.072969376126
100.070703836397
100.069410724456
100.073958760451
100.073992356129
100.070994472163
100.074534468336
100.080769884684
100.086168223444
100.07953470539
100.07944152241
100.08372249028
100.099018336074
100.067632221374
100.06817406064
100.05205196029
100.025595052849
100.026505344849
100.022041388453
100.022443713401
100.028825019087
100.059578137278
100.071924571138
100.068032237596
100.067834733821
100.074733319924
100.061011087513
100.061761600612
100.061691561883
100.06188475145
100.071593422313
100.066745574225
100.066734581851
100.071539816871
100.061910889402
100.061734185592
100.0617614495
100.06084659374
100.059681083453
100.061733203012
100.059950498221
100.020453492771
100.023622241516
100.024619441623
100.024465411481
100.023664834781
100.023801769997
100.025253724276
100.025902869313
100.029228152005
100.026344081798
100.027352991061
100.030943383266
100.030947662309
100.027363235653
100.0263034847
100.02898660348
100.028492454666
100.021773930439
100.02349164442
100.030271359269
100.030704093945
100.029576597111
100.029445859085
100.030537193393
100.030409522483
100.029506099791
100.029882022291
100.030174208736
100.024953332766
100.025727182995
100.026929084552
100.026886834838
100.025611928949
100.024736565778
100.025660583462
100.02492970355
100.02927337216
100.030536986353
100.03125496592
100.031500789473
100.030663014376
100.030676194295
100.031576473297
100.031409383115
100.030734473091
100.030979641949
100.031177375034
100.031191933301
100.030462110647
100.030057752242
100.02999637837
100.030283410033
100.02983144772
100.029619633879
100.030759842414
100.028968366812
100.028797758086
100.02898608615
100.029139702603
100.028616977319
100.028565433829
100.029111995853
100.029073287578
100.0288693052
100.029106365318
100.02911773799
100.029143283478
100.029024248651
100.030814723186
100.030764770186
100.031061909558
100.030947484828
100.028983077817
100.026677532597
100.026687849568
100.026539765543
100.026523984139
100.026503220371
100.026469020317
100.026371846718
100.02636635178
100.026525004707
100.026494482231
100.026721798464
100.026717164761
100.026812694348
100.026790030835
100.026780826945
100.028998548962
100.029107973519
100.026809617944
100.024958411774
100.02482869834
100.024798338871
100.024643738708
100.024612235445
100.024405108501
100.024816146825
100.024790586722
100.024346716746
100.024547918188
100.024522408682
100.024735841512
100.024776264713
100.024927517625
100.024937361818
100.024943843352
100.023353905481
100.023338337871
100.023174721321
100.02308963037
100.022880536844
100.022847661461
100.022577374611
100.022381556123
100.02241116411
100.022563254962
100.022724001373
100.022719171266
100.022946909349
100.023049040378
100.02326745062
100.023331142345
100.021722953431
100.021756648543
100.021659966824
100.021401618468
100.021227747103
100.020904524194
100.020791730643
100.020628721877
100.020059012562
100.020031173879
100.020465672647
100.020611156666
100.020735598601
100.021032970384
100.021226226874
100.021563983557
100.019601225242
100.019928586342
100.019964117846
100.019695401106
100.019263032354
100.018958433272
100.018452702594
100.018183042164
100.018053800641
100.0170818485
100.017049042451
100.017840682946
100.017951124353
100.018301042453
100.018740751733
100.019091344324
100.016054533549
100.016959866314
100.017572208293
100.017584584859
100.01701119961
100.016168588431
100.015914529818
100.015104672413
100.014246417956
100.01424993806
100.012469732144
100.012475044361
100.0141726374
100.0140866919
100.014971545196
100.015693258075
100.011287636942
100.010824211938
100.012813667485
100.014061675061
100.014023195286
100.012797475273
100.010814379662
100.011333373373
100.010152290795
100.007529587069
100.008677734312
100.00534277985
100.005110173483
100.008370089783
100.007476409229
100.010170360887
99.99775852763
99.9987059325754
99.9944522033642
99.9983067417721
100.002710265222
100.002590897545
99.9981584042832
99.9943532051955
99.9986965212068
99.9976650957865
99.9894942150754
99.9931816487786
99.9901488525762
99.9899666116178
99.9929132739873
99.9898456780569
99.9997555479608
100.008163547005
100.008541801761
100.004552015799
100.013173539304
100.015371179961
100.01515051818
100.012675452876
100.004196325838
100.008091868786
100.007754976286
99.9993285206792
99.993591625844
100.028249810315
100.052099825481
100.052273938013
100.028989587021
99.994598867146
99.9944844109932
100.088857841838
100.172928744436
100.113702525398
100.113993333438
100.100181173355
100.085319419615
100.075340267945
100.070290701477
100.069420228492
100.07467953756
100.089965404053
100.080148087079
100.079916362159
100.089205355166
100.073852646991
100.068713470553
100.069918777082
100.074877077242
100.084674763163
100.099566773136
100.194776111487
100.215103132006
100.215303091428
100.195068980479
100.197357246232
100.189445800062
100.213667647276
100.25493337674
100.163288932202
100.168603198526
100.224836005186
100.187599136353
100.216397978266
100.242925255768
100.182580345857
100.182081078453
100.242027280094
100.215375239476
100.186645572923
100.223857138898
100.166938329217
100.161980905261
100.212964607811
100.189004336243
100.196928580368
100.293553252071
100.341457911511
100.309007390351
100.309175125189
100.342080478331
100.311320389866
100.294130678291
100.40365958334
100.43349508119
100.405150018275
100.42246732328
100.419844102315
100.375487930787
100.315215462036
100.348863025994
100.293930896667
100.40154722042
100.429347689014
100.402171070959
100.415173563122
100.441352149745
100.391286729377
100.326841346681
100.332959334645
100.259808144703
100.301346142308
100.382234842674
100.421568783413
100.445130956752
100.459400770929
100.468076443866
100.472589719859
100.474680133447
100.475808329736
100.476345680471
100.476573724352
100.476645708497
100.476653443732
100.476622467378
100.476539562749
100.476391418374
100.476192773287
100.476030841877
100.476044056646
100.476566532943
100.478281363275
100.482510760414
100.490683866702
100.506004432242
100.528751239927
100.566572974397
100.559011123063
100.496550870586
100.442899022369
100.3882538401
100.357208611223
100.379226381191
100.37725697752
100.37530133128
100.375904018762
100.376968181357
100.377958061949
100.379128922673
100.380662168599
100.382476492
100.384366248542
100.386079465541
100.387371874789
100.388030902029
100.387101865574
100.385953048805
100.384575402549
100.383041075008
100.381404430265
100.37968146836
100.377929835151
100.376257339199
100.37475914875
100.373471166498
100.372338097783
100.371278125478
100.370230271223
100.369256007388
100.368634041192
100.36879655356
100.370140434326
100.372614043304
100.374507399065
100.374859091995
100.37438249031
100.374447443829
100.374701990325
100.374747700011
100.374946833493
100.375129983792
100.375267224135
100.375388487779
100.375474456022
100.37570900279
100.375861896001
100.37620367522
100.376355241541
100.376458989768
100.37625123786
100.37600847898
100.375922372688
100.375888649068
100.375811625985
100.376012754519
100.375916330591
100.376082080011
100.376155281808
100.376397086729
100.376256101434
100.376110035335
100.375733719808
100.375567919289
100.375333563254
100.375255706
100.375140436846
100.374996381818
100.374803527143
100.37461193005
100.374443792395
100.374499448129
100.374679807574
100.37486466691
100.375004579947
100.375128405981
100.375210857639
100.375434155644
100.375589636318
100.375999838462
100.376167928095
100.376332563632
100.376192534525
100.376060918385
100.375861840537
100.37544430064
100.375314353018
100.375080136004
100.374991932893
100.374864085292
100.374736072345
100.374536995177
100.374362960043
100.37420056391
100.374255071722
100.374415472105
100.374612985666
100.374733890832
100.374855734785
100.374944361524
100.375193173459
100.375340783015
100.375735166492
100.375971735123
100.37604339104
100.375964129815
100.375945614889
100.375868883403
100.375756482399
100.375779076631
100.375662859885
100.375870229462
100.37595459414
100.375852063257
100.375605009099
100.375213714018
100.375032864776
100.374801561364
100.37472674697
100.374602193157
100.374492550827
100.374278748433
100.374123073614
100.373970785265
100.374024212064
100.374162455074
100.374380089211
100.374457178418
100.374602952432
100.374689683633
100.374901213431
100.375064528611
100.375470896139
100.375728355064
100.375549974905
100.375292820483
100.374913461128
100.374788044898
100.374557042936
100.374462352573
100.374322700948
100.374272981776
100.374035658321
100.373903864238
100.373752968242
100.373813538376
100.373932982951
100.374156545051
100.374207075297
100.374350912622
100.374429713277
100.374659846149
100.374771482769
100.375113748485
100.375374277118
100.375470508301
100.375317736545
100.37513938223
100.375160182413
100.374875360312
100.374655541871
100.374639739226
100.374469631321
100.37431447313
100.374223303798
100.374076893696
100.374027961569
100.373840886878
100.373711672451
100.373544357222
100.373638118867
100.373762037557
100.373873856364
100.373953514103
100.374065752615
100.374157910735
100.374309955265
100.374632893568
100.374885030487
100.375393719522
100.375314201332
100.37526769184
100.375119888289
100.375137890295
100.375018163452
100.375070861045
100.37468244828
100.374458959077
100.374137573733
100.374048875406
100.373999632632
100.373880144079
100.373831054148
100.373837464147
100.373737492387
100.373686720027
100.373534572931
100.373442633154
100.373350533343
100.373289495944
100.373328500923
100.373379682201
100.373452359509
100.373610846993
100.373649020752
100.37374298114
100.373803744946
100.373960252991
100.374076255841
100.374314331373
100.374473525107
100.374775044384
100.374853467607
100.374610417321
100.374567222209
100.37445145479
100.374285622105
100.374163623689
100.373930607816
100.373834514099
100.373716690328
100.373650534202
100.373552194127
100.373536220601
100.373366137876
100.373283985871
100.373225346881
100.373069203288
100.373153859938
100.373203010296
100.373297972438
100.373439759106
100.373459257331
100.373556283578
100.373601921043
100.373730634943
100.373790628534
100.373926131094
100.37406033484
100.374126788901
100.374084675119
100.373914299524
100.373775784333
100.373902495368
100.374226403843
100.37417694219
100.374220690043
100.374370441016
100.373965457428
100.374127929749
100.373933810872
100.373815701694
100.373721415594
100.373512378226
100.373609190674
100.373472744677
100.373452086516
100.373353540385
100.373306575795
100.373238451768
100.373122858421
100.373076135381
100.372937322921
100.373029225301
100.373058924477
100.373198378639
100.373204151415
100.373289823823
100.373281629607
100.373450432361
100.373408339299
100.373377686155
100.373448083871
100.373516169164
100.373574289001
100.373651261034
100.373763990404
100.373855926757
100.373951935718
100.374061742495
100.374179327214
100.374301183198
100.37443123382
100.374562549906
100.374697497114
100.374832990914
100.374971972459
100.375107242513
100.375246744661
100.375264125862
100.375396589276
100.375523579293
100.375601183833
100.375823378417
100.375985161385
100.376302952618
100.376455652985
100.376523242279
100.376355615532
100.37612871207
100.375680795469
100.375147500525
100.374754010368
100.374619996859
100.374459285005
100.374366572367
100.374601884261
100.374753145515
100.374937616575
100.375043898181
100.375592975792
100.375500065132
100.375380898721
100.375208311676
100.37477946771
100.374853474591
100.374805039015
100.374808005935
100.374795877433
100.374864374274
100.375229108361
100.375242542072
100.375272201744
100.37534316901
100.375332129331
100.375309641863
100.375694720789
100.375765292917
100.375767914723
100.375718289403
100.375660302376
100.375653401415
100.375530350491
100.375423344954
100.375210578174
100.374935936543
100.374280096453
100.373442793606
100.373564492901
100.37359214954
100.374117062216
100.374316689383
100.374435590454
100.375073664245
100.374939216017
100.374822263506
100.374404441262
100.374247452412
100.374559657356
100.374573241812
100.374749148731
100.374969217055
100.374693015739
100.37447494
100.374026350162
100.373769236234
100.373707705851
100.3737456722
100.373842216907
100.373894335255
100.373863228065
100.373955524298
100.374062515062
100.374181087915
100.374312839233
100.374451312111
100.374591699908
100.3747327275
100.374880930709
100.375023802318
100.375164862701
100.375311512892
100.375382909541
100.375400991777
100.37553146324
100.37565408244
100.375720550841
100.375946549847
100.376115617558
100.376411443574
100.376552804028
100.376577751318
100.376452043524
100.376401704298
100.376251924438
100.37582237595
100.375367722541
100.375135273656
100.374750473013
100.37431422594
100.373826219949
100.373593290919
100.373445757907
100.37321127417
100.373047693131
100.372930205126
100.372833108207
100.372696833358
100.372642157793
100.372615623043
100.373039607567
100.373273694819
100.373339697618
100.373391608728
100.373483805459
100.373484788112
100.37356052752
100.373685330081
100.373826406816
100.373946659348
100.373525620256
100.373854686007
100.374340806023
100.3744487939
100.375096792942
100.375346627347
100.375488481409
100.375452289825
100.375602647881
100.375765566051
100.375441372001
100.375522520372
100.375537518481
100.37565621026
100.375774783787
100.375851254769
100.376070814906
100.376225807383
100.376498395111
100.376632028159
100.376629129613
100.376528587331
100.376328943844
100.375926623374
100.37549870151
100.374884314718
100.374421058425
100.373993444225
100.373277829614
100.37303886509
100.372845704411
100.372664697241
100.372435524812
100.372323513855
100.372098543429
100.371924615444
100.371704008947
100.371953065473
100.372191149803
100.372478934521
100.372789068511
100.37283169951
100.373097091548
100.372740152977
100.372885722498
100.372975400456
100.372517231492
100.374143116116
100.375137250629
100.375018344312
100.375258564438
100.375146340883
100.375353790418
100.375501212104
100.375675677346
100.375777934234
100.375895701048
100.375978223343
100.376178117005
100.376324100157
100.376579379828
100.376710575828
100.376726824648
100.37662558028
100.376442816965
100.376042916351
100.375644547583
100.3750514826
100.374545708891
100.374180676564
100.37349983752
100.373292126391
100.373099047852
100.373076061838
100.373117646332
100.372847916987
100.372649261704
100.372413899966
100.372181327667
100.371896343268
100.371612942164
100.371349524679
100.371097911978
100.370814069355
100.370473052558
100.370065113668
100.370416694997
100.370809235404
100.371071868398
100.371320370854
100.371528617509
100.37177784569
100.372091605429
100.372362452889
100.372585506313
100.372772278357
100.372858130316
100.37266128214
100.372453738053
100.372027332722
100.371898980807
100.371735774746
100.371580156857
100.372008785962
100.373707258568
100.374785670292
100.374732411322
100.374969269108
100.374870258936
100.37507427992
100.375221689252
100.375011391632
100.374960413782
100.375213408402
100.375289274187
100.375426438202
100.375635533377
100.375815071695
100.375902313794
100.376021390656
100.376099690936
100.376281086557
100.376419496089
100.376661592808
100.376790119481
100.376839285714
100.376689597592
100.376588234995
100.376162406878
100.375774199499
100.375188264559
100.374722684809
100.374316206911
100.373670552985
100.373453440547
100.373121319156
100.373249617531
100.373092386149
100.373228070574
100.373291497169
100.373478694486
100.373270041262
100.373067620751
100.372891563135
100.372693847028
100.37244360231
100.372156853047
100.371883391769
100.371600284223
100.371296995617
100.370900510311
100.370449068075
100.370042132078
100.369681556192
100.368996737486
100.369243008073
100.36979299082
100.370120438189
100.370569497936
100.370911974843
100.37120315257
100.371508927638
100.371807178607
100.372110082651
100.372352243831
100.37255619045
100.372742463476
100.373010565319
100.373015972813
100.37283804414
100.372347188624
100.37190542664
100.371210502749
100.370455380061
100.370987585586
100.370452411961
100.369817036085
100.369222085109
100.368668146878
100.368108916807
100.367245110143
100.366064560638
100.364802623744
100.362155428548
100.362277468505
100.363301666951
100.365067384207
100.366534637705
100.367916157835
100.368908657606
100.36973863069
100.37040160173
100.370919929292
100.371377968347
100.371503792915
100.370912089598
100.37003393903
100.369441452509
100.368781099999
100.368017668561
100.367000619108
100.365548885111
100.364903594709
100.363768490324
100.363204678831
100.357988794223
100.354993665998
100.361800252614
100.358777402726
100.360733275474
100.357936707078
100.357607649108
100.354148748096
100.356200895685
100.359679825321
100.359669430449
100.361218310588
100.362641482966
100.364265487174
100.366163410883
100.367534120586
100.368870249609
100.369815843385
100.370646838319
100.371268462997
100.371782104009
100.372196946543
100.372618245965
100.371810996828
100.37165378169
100.370995464274
100.373714013261
100.373966762361
100.373989515488
100.374154579361
100.374197798459
100.374045442655
100.373636984892
100.372817358275
100.371945948587
100.370793516214
100.36928351927
100.366923714658
100.366998729674
100.371305800735
100.372642587815
100.367433923882
100.363792247541
100.364812172495
100.34893661679
100.353960886604
100.349121513652
100.353959323092
100.352999223942
100.370999727284
100.371347028853
100.373088518187
100.373036964879
100.373270169276
100.373440283836
100.373447302977
100.373624449105
100.373821524822
100.374023715367
100.374228476326
100.374230787783
100.374801205993
100.37403703115
100.371648894229
100.369357357037
100.368361355515
100.368546379014
100.369410052565
100.370493778166
100.371562485254
100.372613604445
100.373746501157
100.375059143162
100.376607797254
100.378354296358
100.38019051898
100.382004526635
100.383726020253
100.385328824786
100.386745993446
100.387906896856
100.388824692864
100.389463062935
100.38869255748
100.387467975101
100.386812345077
100.385911701649
100.384821312922
100.383533856446
100.382118369326
100.380611753778
100.379011357729
100.377363184796
100.375776165467
100.374344517003
100.373096093106
100.371983700254
100.37094092478
100.369953805555
100.369148760599
100.368828086833
100.369376607938
100.371062543197
100.37357468595
100.374915452896
100.374823945894
100.374590738622
100.374680131093
100.374921670194
100.375144607208
100.37549651797
100.375566508675
100.375786900964
100.375936888219
100.376013411946
100.376148000107
100.376229238927
100.376407398052
100.376562921588
100.376753137768
100.376891501972
100.376869335488
100.376907021419
100.37693878104
100.376735455931
100.3762830337
100.375941416752
100.375240309222
100.374939039296
100.374615282829
100.374379975457
100.3739847028
100.373682358662
100.373343225765
100.373403692801
100.373355003912
100.373500055644
100.373649960893
100.373569404503
100.373812387043
100.373693819547
100.373474088648
100.373513138568
100.373282648474
100.373098689911
100.37292834008
100.372703549909
100.372449275642
100.372192645775
100.371907992513
100.371585523039
100.37129531455
100.370838356841
100.371086268419
100.371455543141
100.371784574509
100.372064407252
100.372324290663
100.372591879153
100.372821704137
100.372999813553
100.373193085666
100.373445287161
100.373311733335
100.373394903444
100.373463391237
100.373289875849
100.372873812593
100.372323213058
100.371972131534
100.372231754103
100.371682438025
100.370886047598
100.374671251264
100.375086239968
100.375446126426
100.375722877459
100.375588156749
100.37577318918
100.375860926373
100.376074811738
100.376203891331
100.376247636088
100.376365452777
100.376454753159
100.376675624025
100.376949361522
100.377071397638
100.377069757389
100.376795116093
100.376528913282
100.376360112276
100.376116693595
100.37546614941
100.375127849915
100.374559665332
100.374176641463
100.373862484279
100.373517710213
100.373542106342
100.373387271406
100.373656641128
100.373517101405
100.373688656067
100.373792418712
100.373948546648
100.373882791208
100.374083342358
100.37390854846
100.373913882839
100.373701867953
100.373538957426
100.373373266239
100.373174527636
100.372954142056
100.372740221949
100.372499935065
100.372224064423
100.371926616744
100.37162117894
100.371271064601
100.370829691662
100.370344216169
100.369973143129
100.369556322519
100.369894849015
100.370368094725
100.370850013405
100.371103422674
100.371456374618
100.37178477666
100.372090493677
100.372363137924
100.372618530655
100.372852649181
100.373061271398
100.373262427683
100.37347319981
100.373677443859
100.373869899198
100.373776766823
100.373643780574
100.37365351111
100.373491452812
100.372788412447
100.371845460708
100.371020751714
100.371348445341
100.371746939444
100.372353239496
100.372917550086
100.372530902805
100.371410913869
100.372618206777
100.371580369241
100.374203239058
100.374330531951
100.374859373226
100.374515218919
100.375108895107
100.375452475686
100.37555303802
100.375506336064
100.37532469884
100.37494290925
100.374448885834
100.373902505343
100.37324671437
100.372658897511
100.372962501878
100.373275045947
100.372453701653
100.371921892232
100.369737079381
100.367566787602
100.365069321786
100.365652583941
100.351652997523
100.358378346502
100.351189076058
100.349410261476
100.354359354889
100.356848518822
100.352802431282
100.352460355581
100.35217817461
100.359454093865
100.353356940616
100.354588175809
100.354409810553
100.352852079476
100.352668286891
100.355135277714
100.356376070134
100.358031393706
100.359123552207
100.356241637248
100.357870410498
100.361469016245
100.362425743508
100.364991117119
100.363366896917
100.365728662135
100.367450435371
100.36894197733
100.369970999989
100.370858520891
100.371497593224
100.372008360811
100.372406404599
100.37278957887
100.373029855143
100.37302327986
100.372986215378
100.37268721133
100.372387929853
100.370968731205
100.373639961468
100.37550602225
100.375911274816
100.375958625908
100.376094690016
100.376290495758
100.376403976
100.376560115109
100.376606267006
100.376724986134
100.376808846584
100.377075374655
100.377055899051
100.377306330169
100.377394079497
100.377324655476
100.377298292568
100.377122798461
100.377012998348
100.3769287134
100.376684084849
100.376275149454
100.375796286308
100.375447324458
100.375309730072
100.37459118826
100.374377632032
100.374049351671
100.374019287903
100.373820613455
100.373741946585
100.373564388404
100.373785309358
100.373812676929
100.373966162342
100.374104529739
100.37402397405
100.374183063948
100.374129211613
100.374235251135
100.374093762251
100.373994668733
100.373812202187
100.373783631547
100.373548278124
100.373359218718
100.373143300971
100.372925249184
100.372662153551
100.372415022172
100.372102102434
100.371775086108
100.371453546534
100.371065391822
100.370600659791
100.370304176818
100.370549338192
100.371021704715
100.371405598732
100.371738422917
100.37206292638
100.372370298551
100.372623485571
100.372863192909
100.373093355652
100.373307493896
100.373491580463
100.373693418701
100.373700732988
100.373761141252
100.373640412435
100.373595712
100.373825663913
100.373232051506
100.373443534588
100.372547368623
100.372802254773
100.373267476643
100.373366728677
100.373031049761
100.372357077325
100.372855472435
100.372082894487
100.374558654241
100.375144115108
100.376662625802
100.376648589109
100.378516884628
100.378999660305
100.378981712401
100.378781356652
100.377417945162
100.37672638409
100.37598643659
100.37519983321
100.374775523896
100.374108619969
100.373430149254
100.373654840161
100.374290692393
100.374875414354
100.375474497206
100.376351877911
100.376964327131
100.377474495477
100.377836086778
100.377572562758
100.377858784285
100.377928413241
100.378217602291
100.375892240411
100.37531863946
100.375016680496
100.375202512579
100.375415188916
100.375702097338
100.375876306359
100.376009375856
100.376223839509
100.376305828309
100.376402386447
100.376519553082
100.376587789323
100.376768223144
100.377038377251
100.377125441956
100.377112267808
100.376905277523
100.376868697527
100.377070694662
100.377109052448
100.376974257862
100.376672840919
100.376431645598
100.376587747017
100.376740744026
100.376874193943
100.377132419934
100.377202044574
100.377167782186
100.377263299743
100.377261274237
100.37719435276
100.377005755389
100.377015505287
100.376864684064
100.376706097251
100.376628110325
100.376519617498
100.376468201548
100.376281477969
100.376150840648
100.375962309538
100.375671808854
100.375832449242
100.376027279962
100.376148485095
100.376345036641
100.376422291597
100.376523575524
100.376600650929
100.376377360993
100.376520994621
100.376648986287
100.376752946256
100.376831398449
100.376912887253
100.377103040122
100.377378458515
100.377477750345
100.377394044428
100.377123896491
100.37682478801
100.376593741125
100.376335416997
100.376190955659
100.376009562339
100.375745761077
100.375475617611
100.375159810209
100.37477879344
100.374535445741
100.374136719047
100.37395614565
100.373940390469
100.373728136865
100.37392260792
100.373851560672
100.374146422499
100.373996032459
100.374138941855
100.374194147784
100.374279515512
100.374250567369
100.374343467323
100.37432302816
100.374367144124
100.374232759604
100.374093172051
100.373935964493
100.373734751411
100.373517848327
100.37331683385
100.373076409099
100.372842632116
100.372546455895
100.37228408952
100.37194884751
100.371594355578
100.371249562431
100.370823159356
100.370321670176
100.369933657924
100.369392753035
100.368718709622
100.368030307491
100.367393145212
100.366499131653
100.365779688541
100.366683747863
100.367534215667
100.368202665013
100.368911389897
100.36951294517
100.369954565315
100.370133932477
100.369762313413
100.369438310376
100.368811333628
100.368139833677
100.367436351809
100.366423847413
100.367305506219
100.36779794938
100.368506759971
100.369104916965
100.369500283661
100.368794649772
100.368241271516
100.367230832911
100.367843236577
100.368375967256
100.369004268236
100.369654148153
100.370218316591
100.370653729093
100.370846165277
100.370268798744
100.369763849875
100.369329384264
100.368812360706
100.367789442056
100.368304030017
100.369068449492
100.369382345889
100.36984621526
100.370319832402
100.370885052607
100.371330051339
100.371664113473
100.371944057422
100.372210212417
100.372488429226
100.372727313126
100.372922278242
100.373108275617
100.373117963148
100.372867644231
100.372502558337
100.371521480628
100.371813029365
100.372127750826
100.372665820031
100.373109096737
100.373340508266
100.373314035908
100.37341605525
100.373506684262
100.373007431946
100.372641809106
100.372989320471
100.372475597399
100.371861363954
100.371030149897
100.370056446044
100.3687076147
100.367149942507
100.366740367541
100.368480376565
100.369904651026
100.370939267584
100.371814193596
100.372454846032
100.37299350659
100.373387561203
100.373394645833
100.373744315728
100.373909217458
100.374077213104
100.373844185753
100.373615853696
100.373621755242
100.373003609343
100.373077944284
100.373269811534
100.372548217328
100.374482004747
100.3748775572
100.375276356449
100.375659067413
100.378110655523
100.379273662067
100.379683815214
100.378765342593