/*--------------------------------*- C++ -*----------------------------------*\
| =========                 |                                                 |
| \\      /  F ield         | OpenFOAM: The Open Source CFD Toolbox           |
|  \\    /   O peration     | Version:  v1612+                                |
|   \\  /    A nd           | Web:      www.OpenFOAM.com                      |
|    \\/     M anipulation  |                                                 |
\*---------------------------------------------------------------------------*/
FoamFile
{
    version     2.0;
    format      ascii;
    class       volScalarField;
    location    "1";
    object      p;
}
// * * * * * * * * * * * * * * * * * * * * * * * * * * * * * * * * * * * * * //

dimensions      [0 2 -2 0 0 0 0];

internalField   nonuniform List<scalar> 
81489
(
99.9999366451203
100.004760813394
99.9979716400321
100.002240150967
100.007555297195
100.004229266497
100.003851607036
100.003903670531
100.004073759634
100.003689661731
100.004294785339
100.007380997443
100.011225302893
100.010059793536
100.008261891148
100.009266399853
100.006413905984
100.004030514477
100.004048609742
100.006427521155
100.009240305566
100.00821792883
100.01002553828
100.011179745443
100.007358909184
100.004264030754
100.003658546055
100.004048485579
100.003876144668
100.003820130704
100.004195415448
100.007534856261
100.011345947803
100.010193299737
100.008254835694
100.009266781676
100.006455106336
100.00409515039
100.004078320636
100.006441895592
100.009290328322
100.008301882447
100.010232624189
100.0113850987
100.004543404135
100.003831635333
99.999554596284
100.000065819173
100.001422708257
100.001841813593
100.00186955249
100.001445415233
100.000046779728
99.9995195127889
100.003801611501
100.004514985733
100.002237600877
100.001170888397
100.001871262681
100.00210916946
100.002062632467
100.001736432605
100.001397469547
100.002372740104
100.004505179973
100.003778639396
99.9994945291372
100.000005001272
100.001401399294
100.001826240921
100.001796416149
100.001371312199
100.000027866318
99.9995325051875
100.003810180599
100.004531476424
100.002375625545
100.001411259774
100.001753095784
100.002080482067
100.002127589007
100.001886989798
100.001186495163
99.9979483188651
100.000080475526
99.9999891764899
99.9886850142326
99.9910800272471
99.9912139983952
100.001523039996
99.9961441358392
99.9942293453766
99.996649972486
99.9988063617556
99.9988365333422
99.9966528124461
99.994180200454
99.9961034945026
100.001493087749
100.001502424195
99.9979756505538
99.9979371165927
100.000074683414
99.9989194128584
99.998895770065
100.00012388264
99.9980199777489
99.9978614182706
100.001453786484
100.001501983192
99.9960897848689
99.9941325114077
99.9966035888958
99.9987903283261
99.9987623122991
99.9965914989399
99.994176676668
99.996128395536
100.00153129576
100.001488385869
99.997859863434
99.9980328256685
100.000130932179
99.9989134331127
99.9989379220168
99.9959999179863
99.995951430115
99.9887282938467
99.9589281182172
99.9588484096739
99.9532504730352
99.9542235549863
99.9593890794481
99.9897707980737
99.9968003940595
99.9961350431966
99.9961309090874
99.9967264322659
99.9993580757483
99.991212832447
99.9910422316256
100.004772430395
99.9999822136868
99.9959729127941
99.9959268518047
99.9997050458208
100.004352758939
99.9910322136131
99.9912152359863
99.9897126024501
99.989750434109
99.9912198549164
99.9910704184702
99.9533842256029
99.9531620887963
99.9546698283428
99.9546579679384
99.9531441539194
99.9536715213038
99.9544973440407
99.9545183035522
99.9594382217491
99.989734913319
99.9838337904198
99.9671246898648
99.9606939217707
99.9605337214599
99.9580786332863
99.9591329802902
99.9536890181388
99.9543231943613
99.9533045547015
99.9588740033256
99.9886570983301
99.988700301709
99.9589543185332
99.953435854475
99.9543994675584
99.95947781451
99.9594291422812
99.9543022960727
99.9536877182779
99.9591431163908
99.959012930101
99.9582885136661
99.9582980591033
99.9590408692676
99.9591584638154
99.958084803155
99.9594045116199
99.9593995936971
99.9600253766925
99.9599864645097
99.9590313327341
99.9531630059581
99.9546824341141
99.9546964006416
99.953184215676
99.9537051049646
99.9545503463523
99.9545287146959
99.9580927166031
99.959402906202
99.9600353226827
99.9599839532308
99.9594750596634
99.9594787563973
99.9600014032912
99.9600406608845
99.9579568016678
99.9577715720113
99.9577713799514
99.9579532441202
99.9578972404532
99.9577645542859
99.9594685529275
99.958300073815
99.958290323178
99.9590045759731
99.9591161259098
99.9580868850536
99.9593965832264
99.9577675549538
99.95777073833
99.9579621062803
99.9579078993316
99.9577821154298
99.9577798865613
99.9579109838241
99.9555464423147
99.9555755176772
99.9554992130158
99.9554974578449
99.9555671109345
99.9555314193182
99.9554918861987
99.9554910439481
99.9577652721172
99.9594638672944
99.9599712767141
99.9600122038843
99.9579446212907
99.9555562882519
99.9554904236807
99.9554954323888
99.9555740425687
99.9555503738313
99.9555162331105
99.9555123131604
99.953584279567
99.9536121363942
99.9536225129832
99.953557032108
99.9535534117511
99.9536072029731
99.9535954796495
99.9535526820815
99.9535479057507
99.9535726292188
99.9555249784142
99.9578943853671
99.9584621973775
99.9558268894877
99.9538496365332
99.9535861121396
99.9535350289248
99.9535460852091
99.9536163564525
99.9536173260425
99.9535857373047
99.9518206798939
99.9518243123493
99.951842597441
99.9518397715647
99.9517934665054
99.9517894587359
99.9518146054271
99.951809786756
99.9517715228693
99.9517662828268
99.9517709998118
99.9517794352311
99.9517497893213
99.9517698881675
99.951824817141
99.9518379889445
99.9499070520725
99.949903263799
99.949911278952
99.9499187253654
99.9499215340588
99.9498820341182
99.9498803592043
99.9498744572994
99.9498680856103
99.9498284045329
99.9498235545416
99.9498159290598
99.9498139230226
99.9498019364246
99.9498395607392
99.949885216616
99.9475760404707
99.9475818052783
99.947553841736
99.9475653245177
99.9475881234886
99.9475952344454
99.9475322801215
99.9475387880928
99.9475571220743
99.9475232379411
99.9474403504555
99.9474367146872
99.9474331375531
99.9474100306056
99.9473852298983
99.9474666344308
99.9441870078301
99.944348626173
99.9443529325473
99.94430086251
99.9442934974492
99.9443274291949
99.9443541534549
99.9442815059913
99.9442903929829
99.9443237021333
99.9442494714763
99.9441102048322
99.9440906429803
99.9441073741304
99.9440246160458
99.944010968735
99.938855772143
99.9391322881606
99.9390351703703
99.9389913534746
99.9391515097605
99.9392143542746
99.9391024057328
99.9391276516642
99.9393262116399
99.939300817479
99.9390547519823
99.9389126758256
99.9390500959549
99.9389714485633
99.9387150028824
99.9385361357784
99.9237545368751
99.9252960975934
99.9253670527312
99.9239808725879
99.9240524741753
99.9259915455345
99.9261563110708
99.924399359143
99.9244271095945
99.9258252958115
99.9256312868857
99.9240700002835
99.9239050718755
99.925336285146
99.9251765707794
99.9237616044376
99.937251974302
99.9377966605687
99.9345726447861
99.9345083799627
99.9379984438034
99.9379773096899
99.9348070337243
99.9350749586303
99.9385396793689
99.9388731075445
99.9354825068589
99.9351693114551
99.9382153655584
99.9376100942879
99.9341578406741
99.9340314954684
99.9927203122077
100.046207935448
100.002887434802
100.002648572092
100.04547013899
99.9921972204041
99.9914672413814
100.045436208121
100.002735798161
100.00390712304
100.047855012878
100.080474930445
100.080256583577
100.04799826077
99.9943384569046
99.9940738384994
100.118292622213
100.218136884146
100.175707877875
100.175850189132
100.148650236793
100.142389805606
100.140922932426
100.003994145732
100.047043748735
100.078081625393
99.9931729095217
99.9927575210483
100.046480287112
100.003185925779
100.003313408176
100.046562189395
99.9929536706824
100.078732544097
100.07864108337
100.173180922541
100.146147810565
100.14006831782
100.138624127554
100.143538189143
100.170307498978
100.170655128674
100.144546440009
100.139992379971
100.141437751689
100.148109944877
100.239989137048
100.279973711115
100.258916148798
100.258879139029
100.280137882791
100.269740193144
100.240660671426
100.33569879889
100.370599393909
100.343563333798
100.334150433041
100.334253566308
100.342210039574
100.278356544417
100.238804810763
100.269689210258
100.335239474126
100.369530976802
100.390411787846
100.39676582627
100.39882117379
100.402641563695
100.403529430247
100.402424767685
100.401163281841
100.400219702953
100.399468534562
100.398943841855
100.398697781527
100.398687591057
100.398834119708
100.399075895344
100.399406301415
100.399959068416
100.401000000443
100.403105630407
100.407294923529
100.414912287118
100.429902977938
100.454264878412
100.495497483258
100.493104555963
100.429260957107
100.372555016443
100.31522428529
100.282881768228
100.303807849045
100.303166048252
100.300874944394
100.301164205014
100.302231981489
100.303317482677
100.304562475856
100.306175840076
100.308111815656
100.310161667179
100.312049780069
100.313500255862
100.314265632841
100.313056528936
100.311552983644
100.309846764799
100.308073935467
100.30630152758
100.304540312431
100.302839016033
100.301288092593
100.299988684719
100.298966445587
100.298195268763
100.297647959289
100.297267767325
100.297014968221
100.296854362466
100.296757253971
100.296715140127
100.296747274429
100.296902651768
100.297263916514
100.297948619177
100.299296964304
100.30090516335
100.301766674786
100.302020458801
100.302007322005
100.302058630662
100.302061536915
100.302168850304
100.302130631651
100.302155954729
100.302122941909
100.302056488139
100.301874693278
100.301638386013
100.301638760199
100.301673695938
100.302017622386
100.301980250356
100.30190979932
100.302073587017
100.302132991914
100.302148365514
100.302132169219
100.302163305521
100.302069813749
100.302054088895
100.302017952999
100.302006318367
100.301784061745
100.301410734161
100.301906504504
100.302014272284
100.302031372077
100.302053841861
100.302076750974
100.30215644478
100.302130823137
100.302135373634
100.302118618425
100.302051998447
100.302109844557
100.301960316487
100.30208943039
100.302287050403
100.302261243412
100.302213408821
100.302126180353
100.302135015421
100.302138407949
100.302154802113
100.302085819559
100.302057727603
100.302035429903
100.302019977975
100.301832151928
100.301702334577
100.301966711029
100.302047832074
100.302063676689
100.30207406853
100.302098099262
100.302156452766
100.302175096866
100.302167038788
100.30218919642
100.30215827835
100.30232213869
100.302442412485
100.302482925267
100.302227801261
100.302009496201
100.302294883537
100.302575361658
100.302496935225
100.302653118209
100.302612374301
100.302439698124
100.302214979004
100.302240675942
100.302192999854
100.302115882926
100.302080145384
100.302079065203
100.30207535724
100.301984997245
100.302043955475
100.301690061027
100.301270011625
100.301858189077
100.302025429064
100.302026437847
100.302096289244
100.302152200299
100.302116506438
100.302189724107
100.302249297505
100.302253134032
100.302263992843
100.302290784456
100.302559654226
100.302747956707
100.302784868578
100.302690054716
100.302822344366
100.3029981745
100.302914786365
100.302853005701
100.302660964884
100.302386137494
100.302318994451
100.30230622321
100.302239106241
100.302187976455
100.302147261699
100.30215835412
100.302181573204
100.302072540211
100.302108108231
100.301830960678
100.301722347082
100.302034662508
100.302156889307
100.302137050888
100.302233891722
100.302211232492
100.302267653896
100.302297925992
100.302372295697
100.302440525855
100.302532398679
100.30279279278
100.303034005313
100.302966559332
100.303041304816
100.30285188604
100.302556940689
100.302580256165
100.302907307507
100.303151719444
100.303217002633
100.303086497843
100.302880297073
100.303158886341
100.303237267818
100.303356949926
100.303394131394
100.303420567154
100.303320474859
100.303218168749
100.302979168671
100.302632233645
100.302562879139
100.302469161722
100.302389984145
100.302338322415
100.302354175317
100.302288406809
100.302209568261
100.302223311703
100.301975736265
100.302069305397
100.302204464412
100.302287875762
100.302294702794
100.302340306581
100.302454678996
100.302422668279
100.302508575331
100.302515872364
100.302532129804
100.302602274416
100.302705225854
100.3030461427
100.303288497971
100.303377448422
100.303344582197
100.303290593329
100.303109422912
100.303125562337
100.302861487177
100.302717190931
100.302619955214
100.302574954029
100.302522609541
100.302452809972
100.302477954292
100.302458944676
100.302438195488
100.302357278829
100.302131225986
100.302354991364
100.302361876702
100.302398338117
100.302514190781
100.302511394625
100.302526668
100.30261492058
100.30269593978
100.302736773368
100.302842317487
100.303161707287
100.303337971239
100.303340862055
100.303231635901
100.303000454171
100.303230498904
100.303252751194
100.303389014176
100.303400801717
100.303323026821
100.303184223123
100.302940750962
100.302838317567
100.302714905804
100.302760527776
100.302703361862
100.302628695762
100.302636669622
100.302579676258
100.302492332097
100.302537331626
100.302555522582
100.302193081748
100.302387838756
100.302470337192
100.30236873768
100.302594787229
100.302564501913
100.302691517794
100.302651991473
100.302736398766
100.302795402233
100.302863958607
100.302992062036
100.303018618409
100.303222965959
100.303386920529
100.303336195521
100.303361623535
100.303221291995
100.30324375126
100.303381682525
100.303453400137
100.30337753541
100.303513924067
100.303577142473
100.303574854584
100.303466354534
100.303334037809
100.303116886149
100.303025015112
100.302951256884
100.302902668645
100.302834200442
100.302772650936
100.302859097299
100.302664637603
100.302692068329
100.302593820894
100.302609707554
100.30235985477
100.301774592
100.300959271884
100.301954347894
100.301380071984
100.300685542487
100.299918489719
100.29913733727
100.300617679915
100.299977038098
100.298459901624
100.29753950733
100.29702258188
100.296762938373
100.296674757532
100.296677716175
100.296755401489
100.296904499025
100.297142115054
100.29749445136
100.298002732374
100.298724053657
100.299701923504
100.300972753859
100.302501728487
100.304183582368
100.305895046472
100.307587453242
100.309265897134
100.310874882972
100.312279276219
100.313404377737
100.314173115016
100.315091611999
100.315554329875
100.314703712552
100.313457676211
100.31190656295
100.31015165023
100.30833074368
100.306521935492
100.304745702027
100.303045827784
100.301495521543
100.300184596021
100.299134688755
100.298327796625
100.297750823981
100.297349153135
100.297082580273
100.296913309263
100.296806166727
100.296748810077
100.296754255246
100.296854529012
100.297141051524
100.297686835018
100.298872261133
100.300382231582
100.301639498059
100.302076063815
100.302070657476
100.302131132394
100.302153417382
100.302294037221
100.302190617696
100.302332375988
100.302304029437
100.302268627583
100.302076220444
100.301790927744
100.301653974939
100.301200065734
100.300641492684
100.299825632641
100.299914733679
100.300122417745
100.300421821295
100.300903308207
100.301442944021
100.301314669617
100.30097370308
100.300757229897
100.300678705766
100.3012179872
100.301287492085
100.301455293323
100.301778948862
100.30196195615
100.302215320006
100.301951644158
100.301667420349
100.301247272613
100.300682836624
100.299711604515
100.300207107673
100.300969984738
100.301009190229
100.301536585235
100.301720859452
100.301220124905
100.301602627362
100.301864589724
100.302349210751
100.302297630605
100.302135626256
100.302525301387
100.302664042826
100.302851479121
100.302501381394
100.302128566118
100.301678503405
100.300884767085
100.301308216329
100.301825590443
100.301943317397
100.302491796721
100.302764910274
100.302211753361
100.302405983787
100.30275969078
100.302880119881
100.303207880929
100.303084723066
100.302778344758
100.302916123247
100.3028781487
100.302687436042
100.302406012795
100.3023682452
100.302332814157
100.302283175684
100.302168508502
100.302097559752
100.302012423503
100.301995993489
100.302006360073
100.302015614163
100.3019659561
100.301966726717
100.301968702369
100.301971740708
100.301972370835
100.302028306893
100.301985917151
100.302100684946
100.302022800136
100.302208002828
100.302137535916
100.302215457896
100.302171870836
100.302116202587
100.301905931175
100.301784421156
100.30197886317
100.302129118041
100.302174204737
100.302274128538
100.302353623518
100.302392704395
100.302431295188
100.302411616205
100.30221230853
100.301963767434
100.301440841057
100.30091432541
100.300088749281
100.29988810019
100.298800370565
100.297680469996
100.295769198008
100.295797522421
100.297570315231
100.297669320967
100.298780611757
100.298814876128
100.297631410011
100.298225297927
100.29875362286
100.299330546655
100.297945318208
100.296885675334
100.29521392997
100.296623493941
100.297178823559
100.297877512289
100.298464008759
100.298966496511
100.299825067374
100.299996164039
100.299658821189
100.298902127289
100.298204843276
100.297936818966
100.298697478913
100.298206743581
100.299363657951
100.301487886432
100.301821890076
100.301790670072
100.301806287673
100.301727761291
100.301652707673
100.301566679331
100.301674337421
100.301499383795
100.301452689709
100.301595933938
100.302101180756
100.302118721936
100.302172602746
100.30224011412
100.302224312209
100.3023762318
100.302389216069
100.302401587325
100.302439350837
100.302424888768
100.30219376543
100.301995784292
100.30142183745
100.3009140873
100.300116962877
100.298830627931
100.297819581682
100.295806871798
100.295790848608
100.293262349604
100.290224139209
100.290544968831
100.291043669432
100.292127987941
100.293264568887
100.2942511524
100.292018499354
100.290036535494
100.291726159944
100.293232951436
100.294114632575
100.295356181523
100.295531721427
100.294772498101
100.293401338308
100.292771622763
100.294253678285
100.295674296832
100.296211543421
100.295911020683
100.297421417026
100.298835094833
100.301294668595
100.301714521603
100.301572987528
100.300879765357
100.301423213581
100.301215405687
100.300282385758
100.301112682752
100.301094776592
100.301446688623
100.301594611984
100.302113228371
100.302135839837
100.302186115877
100.302252599356
100.302231287901
100.30229523245
100.30220183054
100.302354781914
100.302320167738
100.302296582979
100.302069940812
100.30184895997
100.30130623588
100.300751977367
100.299941542418
100.298766816567
100.297724981509
100.29578200089
100.293417138657
100.290464379868
100.290213286144
100.28636674925
100.282109546926
100.259813726579
100.259397710124
100.262929124589
100.280379859062
100.282903174579
100.282033231427
100.286348974647
100.286917881902
100.287689801751
100.28156541898
100.285248758224
100.287826625153
100.284224513557
100.279698598052
100.271892698922
100.279216719316
100.284394881648
100.284320805169
100.287041648312
100.289138488518
100.287138002986
100.290110612425
100.291563591106
100.292966205542
100.294167668533
100.294125037928
100.292560572794
100.291278759646
100.290835152486
100.292298029109
100.293542986166
100.294016137084
100.294662045706
100.29287033772
100.293941581925
100.293737138463
100.293781038752
100.293739930027
100.29394457963
100.293577904738
100.291785861538
100.293007626632
100.291694825209
100.295279751947
100.292966123447
100.293030099417
100.293252416307
100.293192131272
100.29277272038
100.293576195167
100.293437478824
100.293074023738
100.291939033216
100.291071982167
100.292881812125
100.291185599963
100.291333623475
100.292018361814
100.292592002155
100.291397734456
100.290799324572
100.291001318465
100.298600790746
100.297864308864
100.297529220562
100.297822296544
100.299537068181
100.301305876726
100.299874165456
100.299452863054
100.299839547797
100.296476374351
100.297842292629
100.296515985658
100.294356012384
100.293793935516
100.295691844505
100.297239781237
100.296285523114
100.296186583767
100.294994270073
100.294172329694
100.294662676585
100.294601331136
100.29811120597
100.29984819307
100.301332720946
100.301857807252
100.302004324973
100.302007396906
100.301799297547
100.301749325855
100.301571240889
100.301455014714
100.301104891253
100.300536928248
100.30001524563
100.299951058269
100.300326552439
100.301629874453
100.302101405333
100.302102320623
100.302155063447
100.302176338335
100.302313500825
100.302227900477
100.302137621318
100.30222967349
100.302176009448
100.302119579216
100.301909954047
100.301647432665
100.301195896923
100.300620401584
100.299795410174
100.298859766493
100.297644233428
100.295848190601
100.293753291456
100.291028906388
100.287735968939
100.281557110973
100.280405221139
100.26365372402
100.245188284919
100.16779442003
100.183361800417
100.201932044729
100.205373369945
100.201545385264
100.196586650483
100.2070639244
100.203498566295
100.198043357706
100.209247359436
100.205660905817
100.198697948094
100.208537000793
100.205200588493
100.198023000483
100.207371044382
100.204064755284
100.196959603433
100.206019849921
100.202758593599
100.195880169979
100.203954388694
100.201805486595
100.20232251169
100.201738282637
100.200493398468
100.200518074068
100.200749160636
100.200272597549
100.200272865515
100.200619698513
100.200136585451
100.199827680445
100.200361509376
100.200288659334
100.200007587675
100.200073407092
100.200268322374
100.200456736999
100.200912739425
100.20058705582
100.200268553602
100.199993637301
100.200557263253
100.200409007388
100.200085795363
100.199423421111
100.1993603905
100.199976570906
100.200355609228
100.200520551011
100.19997461658
100.200256093052
100.200578503229
100.200908777235
100.200439181516
100.200255366421
100.200076702432
100.20002031952
100.200290723545
100.200362941945
100.199822210088
100.200130082008
100.200616329808
100.200264644911
100.200285386626
100.200709583708
100.200493464432
100.200495108371
100.201757620724
100.202360530629
100.201850326031
100.204015345324
100.203162281335
100.204264191415
100.202600604062
100.201813136346
100.203425307379
100.203131137844
100.20169143731
100.201296178424
100.201572970255
100.199158042561
100.199968868654
100.200393455554
100.200478386097
100.200546373964
100.200288431756
100.199854042453
100.200332459321
100.199574455796
100.199576219368
100.200618671158
100.199645989827
100.201351945313
100.20088298125
100.200804673133
100.200513647278
100.200597205819
100.200452121546
100.200427387611
100.200478650206
100.200939816165
100.200280816676
100.200178065806
100.200146996294
100.200304191524
100.200831920946
100.200378799945
100.200393761713
100.20044531754
100.200557989867
100.20014955111
100.200308118621
100.200782799658
100.201514487379
100.200077608729
100.200104826679
100.199926679428
100.199939624552
100.200137765907
100.200092065138
100.201538019647
100.200792391164
100.200322348992
100.200164875798
100.200563320506
100.200734667308
100.200921196468
100.200910384789
100.200738209136
100.200601677778
100.200647826942
100.200653871388
100.200600745011
100.200717180447
100.200384066873
100.200402101386
100.200452913535
100.200973343516
100.200135219795
100.200365636725
100.201836915073
100.201334858173
100.201535636506
100.201148070433
100.202291125535
100.201642275182
100.200862161876
100.201231432444
100.201496495418
100.201519484876
100.201229214287
100.20085717038
100.201642449191
100.202337269118
100.201149686331
100.201531431393
100.20133017649
100.201835793531
100.200879141188
100.202616169518
100.201921905999
100.201821833719
100.200775224016
100.200693897858
100.200030923298
100.201134571881
100.199766451575
100.200853185455
100.201450399361
100.200424856202
100.201671796039
100.201218032084
100.203120028522
100.204091856123
100.201053963612
100.195954199089
100.202838098037
100.206108891968
100.197044233126
100.204175403885
100.207498470491
100.198167901825
100.205359747687
100.208717083524
100.198887795408
100.205852816094
100.209513783862
100.198382528917
100.203841691962
100.207241613558
100.19700758161
100.20224049668
100.202415956831
100.199553302364
100.196837917898
100.196705417455
100.201869025733
100.19948780562
100.197478295043
100.193401923296
100.198188754417
100.198285976538
100.193517080151
100.185669743809
100.185245936888
100.163807656946
100.237150836119
100.236536783624
100.164673055164
100.16834321988
100.183696929593
100.202007878649
100.205307865525
100.193837233358
100.188934616855
100.194097637827
100.19257097998
100.198202719444
100.206014097336
100.202035876969
100.202329511075
100.206331046992
100.203082525796
100.202485723503
100.205035112509
100.20228164825
100.201762510776
100.203414040625
100.201163715078
100.200892502693
100.201809308096
100.199980408958
100.20381573272
100.202860260023
100.201125111118
100.201684366962
100.203024951036
100.201678990023
100.20125864997
100.200378963951
100.202570963494
100.202625334361
100.200229290267
100.204187302617
100.204634229646
100.201738154204
100.205037891144
100.206176090871
100.202852237852
100.205918058655
100.206754595598
100.203252272326
100.202057288818
100.188910295464
100.17807526211
100.178677063428
100.187921519257
100.18514592164
100.183774710141
100.1903329546
100.178023366188
100.18238234967
100.175907195836
100.17585046986
100.182603757446
100.22891005226
100.254459891041
100.230857616307
100.159773747069
100.160818224619
100.185641071157
100.152632300029
100.13800210533
100.206455235559
100.247820137612
100.270493898804
100.279495603768
100.285309407535
100.287530994083
100.287362510633
100.282715698957
100.275123042281
100.261687393409
100.268631123571
100.276836172294
100.284099438268
100.287712903398
100.29086715791
100.293515250268
100.293734475407
100.296610120949
100.298343625029
100.297507655953
100.296857845447
100.296771578928
100.297284543471
100.300367630237
100.300734940041
100.301672688776
100.302067650944
100.302005165851
100.302135928984
100.302026361709
100.30204011294
100.302167901325
100.302109674148
100.302141587973
100.302096542663
100.302023748908
100.301846149435
100.301602972679
100.301198672498
100.300671379834
100.299906218172
100.299004026504
100.297880031206
100.296204413732
100.294414895687
100.292121347252
100.289385762071
100.285303447764
100.28099276727
100.274416551556
100.254496756455
100.228384267223
100.182715434226
100.176564287982
100.175808530663
100.18248817269
100.193646227891
100.188528278257
100.193145292271
100.192480352303
100.198368360442
100.205950495548
100.202001323583
100.202342035728
100.206294810404
100.203072489989
100.202484858198
100.205019853128
100.20225925943
100.201751570398
100.203419313749
100.201146527676
100.200886475594
100.201803951343
100.19996160108
100.201814079399
100.204078696919
100.20313408469
100.201698741014
100.201290754187
100.20158253801
100.201831767538
100.203449247069
100.203153958668
100.204266549255
100.202603642885
100.20222500615
100.202913428117
100.201340126465
100.200834785752
100.202155426457
100.203827963041
100.202854458968
100.201128666126
100.201685584624
100.200423727011
100.201457228209
100.200866983683
100.199766619449
100.201145898102
100.200034996883
100.200693767563
100.200777878804
100.201832651478
100.201943240628
100.202623353058
100.200896596827
100.200220383713
100.200866930396
100.200212484693
100.200786229397
100.200428436277
100.200849891622
100.201485881934
100.201058176298
100.200463080304
100.200566221998
100.202973525304
100.20505074925
100.202695728156
100.201844170321
100.201978395901
100.202399183975
100.202123332088
100.202641151314
100.202616277801
100.202126059287
100.202397463373
100.201969963383
100.202678890055
100.205069106583
100.202992211206
100.202982612754
100.203855427989
100.20290092946
100.201995760376
100.20192449905
100.202311157986
100.201360464297
100.200555691445
100.201954027589
100.201360253792
100.200102799551
100.202581339827
100.202882471913
100.20210480192
100.202001918633
100.202728860964
100.204231738435
100.203534549535
100.202623769409
100.203481785693
100.206071608116
100.205366124607
100.202407346576
100.202996779156
100.207741864403
100.2080065697
100.201215182073
100.190744994436
100.1839752962
100.177840089214
100.181474715026
100.182190660719
100.18633737953
100.187905099646
100.183679151687
100.173800390561
100.174054075808
100.17402289584
100.170477083028
100.16038760626
100.162083206493
100.178509182854
100.175306189568
100.177667500112
100.195883983644
100.198690353604
100.211005816792
100.22971214451
100.217913425112
100.223224486811
100.242793602022
100.261546937481
100.244166087147
100.264680049671
100.276031753907
100.280999519238
100.274619883513
100.273754592151
100.281355608887
100.287026332561
100.290619676807
100.293403387258
100.293118300909
100.292607234021
100.291957029873
100.298056185123
100.298451167211
100.298512431678
100.296475676366
100.297239763156
100.299102876025
100.297213338302
100.298933473124
100.29945290505
100.30112336075
100.301262184177
100.300950635009
100.301567416404
100.298833515544
100.299810348388
100.299816429002
100.29907659195
100.29969888744
100.299078595154
100.299116494978
100.299015051796
100.29902392908
100.299131477912
100.299480006757
100.299572307819
100.299807904513
100.299986775855
100.299876560899
100.299423435576
100.298831100783
100.298655464256
100.298966213053
100.299130883737
100.299227343133
100.299116127991
100.299100712484
100.299139634503
100.299034967873
100.299050214927
100.298903142754
100.298824142832
100.298179267807
100.2984026681
100.298559841211
100.298914930066
100.299230808058
100.29924973841
100.298962709418
100.298709266018
100.299000266551
100.299197307288
100.299164949595
100.298943478482
100.29935445036
100.299085814354
100.298945760871
100.299734644274
100.300395499688
100.299915085871
100.299928119623
100.299557309165
100.299113243143
100.298919646573
100.299586966871
100.300164462035
100.30013118892
100.299592575085
100.299867051149
100.300328124921
100.300261347337
100.30014056424
100.299639827636
100.299709133345
100.300257200523
100.300305202885
100.300499546993
100.300502505394