/*--------------------------------*- C++ -*----------------------------------*\
| =========                 |                                                 |
| \\      /  F ield         | OpenFOAM: The Open Source CFD Toolbox           |
|  \\    /   O peration     | Version:  v1612+                                |
|   \\  /    A nd           | Web:      www.OpenFOAM.com                      |
|    \\/     M anipulation  |                                                 |
\*---------------------------------------------------------------------------*/
FoamFile
{
    version     2.0;
    format      ascii;
    class       volScalarField;
    location    "1.3";
    object      p;
}
// * * * * * * * * * * * * * * * * * * * * * * * * * * * * * * * * * * * * * //

dimensions      [0 2 -2 0 0 0 0];

internalField   nonuniform List<scalar> 
80212
(
100.338316752899
100.337704358729
100.337654577302
100.340412122005
100.343962972416
100.34393878619
100.344255370467
100.344176259023
100.344696982054
100.346207653805
100.345533943345
100.344570525666
100.344884066396
100.346003194805
100.34662466289
100.344847135351
100.344275794651
100.344261290539
100.343942639778
100.343957388341
100.344525526717
100.344753345479
100.345631972712
100.347386246635
100.345792397736
100.343724583858
100.342775481946
100.342596467248
100.343028919698
100.343396784871
100.346002999115
100.345791727052
100.345046254228
100.344661949703
100.343229532325
100.343526288366
100.344252238767
100.343469946798
100.34492075836
100.3468897611
100.346810922388
100.344836135147
100.343421026367
100.344235650755
100.343515692927
100.343213951862
100.344640200475
100.345026733098
100.345762952642
100.34599748551
100.343394869714
100.343030798031
100.342605989604
100.34278620848
100.343735358866
100.345802750218
100.34739505011
100.345639863503
100.344765773534
100.344538261537
100.341446596158
100.341762500401
100.341216285699
100.341457963669
100.341197289352
100.341101319972
100.340664866652
100.340400276265
100.340893749228
100.340841656975
100.341193907445
100.341108411128
100.340896102589
100.341420729863
100.34072853119
100.340277584734
100.340523538691
100.340508713533
100.340581771083
100.340311304232
100.340304802334
100.340574454477
100.340499456222
100.340519308251
100.340291791984
100.340764782366
100.341457235725
100.340927569859
100.341125305437
100.341198266833
100.340837167374
100.340886506012
100.340389419648
100.340656909609
100.341090851988
100.341183156205
100.341445974558
100.34120446314
100.341747297587
100.341432358359
100.340409833574
100.340501250528
100.34168473203
100.342105204784
100.341548470795
100.342186086602
100.341675449358
100.341434870926
100.341597496176
100.341980507563
100.342367726938
100.341608133437
100.342144846314
100.341713325013
100.340515818901
100.337746664278
100.33933847718
100.33689678169
100.336977611739
100.337117795308
100.339832458039
100.338153815753
100.33618031761
100.337242061716
100.338191747003
100.338309235957
100.338014255846
100.33894634336
100.339136464929
100.338025053086
100.338356211607
100.338246847829
100.338202713651
100.337912659881
100.336775883516
100.336157127435
100.338002132485
100.337345614344
100.336385813615
100.336375834673
100.337348187254
100.337976525573
100.336131597955
100.336776974514
100.337965052546
100.338258636412
100.338299129237
100.338384541009
100.338030024699
100.339128504469
100.338937435387
100.338004601619
100.338299652516
100.338180141644
100.337229447126
100.336165285893
100.338140841578
100.339813541606
100.338987728089
100.337646643904
100.337713848888
100.339281880078
100.34042712701
100.338585642454
100.336680296692
100.337437773815
100.338248231145
100.338342146757
100.337632736641
100.336868173361
100.338741020463
100.340522983701
100.336908279257
100.327736861602
100.328295749635
100.328439913243
100.3279962857
100.32883574729
100.337187374161
100.337569649526
100.33760049811
100.33844231817
100.340146181861
100.337551756861
100.33675530784
100.335564874557
100.338781468137
100.336511279571
100.335951479223
100.334618827587
100.335768081556
100.335250651533
100.339175529987
100.339220042232
100.335278551237
100.335852519471
100.334977173224
100.336094468671
100.334572101934
100.337173402689
100.337686151085
100.33820689582
100.336648041613
100.338900383585
100.335592213321
100.336744305235
100.337540465527
100.337166227137
100.337092314789
100.336955236347
100.336891814502
100.336912620985
100.336711330755
100.336685664914
100.328639517719
100.32712206604
100.326834511537
100.32710746023
100.327141477468
100.326911595862
100.327269163884
100.32736227919
100.328719943609
100.328600397163
100.328787597853
100.329819993871
100.334972057665
100.334370576693
100.33100616913
100.329327550426
100.328236939194
100.328327190935
100.330178001665
100.32972034333
100.329685002288
100.330098650186
100.329716491899
100.328700339739
100.328550894442
100.328685135392
100.328812195983
100.327977609846
100.328428675923
100.328297701068
100.327759776234
100.328670226298
100.327124806717
100.327693647797
100.327699279885
100.327678941209
100.327806899163
100.327821892881
100.327752966061
100.327864742803
100.327968979435
100.328141741417
100.327534022936
100.327845937216
100.328099248621
100.328139157544
100.328118440272
100.328407264321
100.328680376652
100.328628253911
100.32819886159
100.32810518467
100.327750030657
100.327474574463
100.327319221469
100.327234215363
100.326881967652
100.327127343405
100.327094015638
100.326821821677
100.327651275483
100.327505227214
100.327520936583
100.327530971428
100.327530866057
100.327640933271
100.327661566544
100.327646578818
100.327717309807
100.32771358364
100.327830707796
100.327706795473
100.327671524828
100.327616536395
100.327720632353
100.327719316359
100.328390009553
100.328028987904
100.328038318293
100.32803217201
100.328097651599
100.327925555669
100.327820821828
100.327717210643
100.327787232761
100.327776747072
100.327601370875
100.32657345918
100.326502923848
100.3265441209
100.326557279936
100.32654281268
100.326631301013
100.326659443811
100.326659167619
100.326754356557
100.326721686746
100.326787593008
100.326709925938
100.326717563782
100.326680486303
100.326723508805
100.32672332281
100.326682191383
100.32671447879
100.327657482958
100.327662840515
100.327780271449
100.327660285139
100.327656313778
100.327591995439
100.32760900646
100.326582644244
100.325391822127
100.32537546537
100.325336439576
100.325386696367
100.325408954076
100.325400789783
100.325472172149
100.325512236309
100.325524333173
100.325637661427
100.325635432088
100.325696608952
100.325665570744
100.325713806212
100.325702239585
100.325732751435
100.325709071045
100.325648483275
100.325636856998
100.32555943064
100.326662709175
100.326725334383
100.326635588903
100.32666454232
100.326575577112
100.325387237797
100.324246616864
100.324237902716
100.324218886612
100.324190430506
100.324253710822
100.32429301749
100.324299635422
100.324380082836
100.324437709595
100.324465931555
100.324608170754
100.32463730123
100.324710909785
100.324711573047
100.324786262517
100.324788866659
100.324826007593
100.324802450494
100.324719425893
100.324670934729
100.324556245647
100.324536956685
100.32443382554
100.324390910559
100.32322636235
100.323024546087
100.323012639851
100.322989396163
100.32295125199
100.32304984277
100.32311627572
100.323141137566
100.323254231906
100.323336682109
100.323377123599
100.323569590546
100.323633005137
100.323728091689
100.323756140766
100.323874781579
100.323887295277
100.323960638654
100.323957795425
100.32387963218
100.323790381014
100.323561552148
100.323460306256
100.323316386921
100.321964192593
100.321792367406
100.321519351248
100.321523110242
100.321499102782
100.321417850539
100.321601221388
100.321711261288
100.321748139512
100.32192752578
100.322046838861
100.322072689667
100.322338330212
100.322457773487
100.322595032072
100.322681683356
100.322885765607
100.322891383056
100.323077645793
100.323068109668
100.322876101934
100.322751734821
100.322389958364
100.322182177203
100.320465451992
100.320159701227
100.319846475341
100.319391546029
100.319494969843
100.319504065913
100.319312371369
100.319695284825
100.31987094751
100.319887985342
100.320183779654
100.320334985286
100.320252313631
100.320682537826
100.320894580697
100.321092800191
100.321320511814
100.321757007045
100.321656400151
100.322025934658
100.321972091444
100.321517459656
100.32145672171
100.320844050059
100.318645040833
100.317714939826
100.317276310624
100.316837165983
100.316067557749
100.316364388329
100.316468884866
100.316097389095
100.316947648007
100.317231140379
100.317066387149
100.317639099328
100.317776753038
100.317490146545
100.318197333271
100.318413616215
100.318659125582
100.319366277053
100.320262267058
100.319826099642
100.320682844063
100.32057879758
100.319510251252
100.319778224336
100.318165294547
100.315435059865
100.311752970953
100.311962968772
100.311343947898
100.309708154239
100.310776401155
100.310949801589
100.310274909334
100.312139425751
100.312650875179
100.311931233843
100.313074356715
100.313118035125
100.312131668479
100.31360028264
100.313691492198
100.313222249639
100.316584084159
100.318718654089
100.31730004985
100.319103608513
100.318928082542
100.316778235045
100.314330810866
100.308957210898
100.303554565352
100.301859050386
100.304805180783
100.303936702368
100.300395109294
100.302738601524
100.303250764345
100.302000587925
100.305407440902
100.306436549162
100.304798615711
100.306834971815
100.306601659747
100.304293152362
100.307350827453
100.307635182823
100.304028953317
100.305079080288
100.310074692445
100.315042925012
100.310184431133
100.308864599146
100.308576605828
100.309574469025
100.323284708104
100.324338615499
100.322158755951
100.315629770951
100.31600508846
100.313749940148
100.310627414599
100.312624236807
100.313688420587
100.313882406767
100.31644563209
100.318055345746
100.31838505911
100.319404333277
100.31860630315
100.31632749008
100.318410859019
100.319649724583
100.318664135115
100.324108122321
100.325697954885
100.323723176274
100.329036679422
100.328690380722
100.367867906435
100.363615566178
100.35916608467
100.357255227919
100.350542983389
100.346781532207
100.342974121905
100.345602421887
100.3416015572
100.344756010101
100.347330801781
100.359160504947
100.381201408813
100.384929133685
100.365774562407
100.348743182357
100.344923167385
100.393399016254
100.430503782709
100.414559097655
100.420943876967
100.432898725081
100.418410949057
100.404017505053
100.355397062245
100.352897121355
100.349645214546
100.353446915502
100.348955459942
100.351135487712
100.353919561349
100.359433300797
100.360660435699
100.364077717686
100.368007631233
100.409772663859
100.409857772793
100.425424039435
100.413466693155
100.40448456041
100.399518615447
100.39501488667
100.40174117572
100.38238941554
100.377735246396
100.393106364502
100.382467635371
100.392587634117
100.397922193364
100.403725162923
100.416348955862
100.449323160823
100.449691897729
100.457365104653
100.469463887598
100.446660829901
100.446467404326
100.43973526943
100.404301692914
100.392703539119
100.412566849131
100.443357496451
100.4618232425
100.474544145346
100.478790648393
100.480045365049
100.482978537534
100.485224853944
100.485814736192
100.485150284754
100.484578236189
100.484485251999
100.483684365421
100.483140178911
100.485055625574
100.489437020311
100.494017673097
100.495916453184
100.494917763209
100.492009419836
100.48989083935
100.488864918883
100.487819086618
100.485384732792
100.485572484668
100.486152827397
100.501908588806
100.503448253538
100.46326222326
100.423783043777
100.380794255258
100.356590724996
100.37246017363
100.372537265734
100.370894594398
100.371048999212
100.372000848843
100.373000129602
100.374037635964
100.37523637302
100.376553631231
100.377839093638
100.378934558448
100.379716795383
100.380095322613
100.379620157607
100.379090237098
100.378464079451
100.377713034831
100.376781497438
100.375561669711
100.374010240816
100.372219048517
100.370365000831
100.368663560476
100.367253072424
100.366149026314
100.365302841828
100.36466949759
100.364286123646
100.36423043366
100.364570638939
100.365376760696
100.366717681735
100.368469279301
100.370234474599
100.371575961461
100.372094234712
100.372060564673
100.372121235284
100.37210721709
100.372121843796
100.372148256582
100.372161176858
100.372191793862
100.372262218442
100.372446566208
100.37260470862
100.372673282094
100.372737418454
100.372687168068
100.372462559223
100.37235032167
100.372280578688
100.372284910291
100.372429629978
100.372340925292
100.372178839302
100.372133047518
100.372104087925
100.372076770242
100.372081416579
100.372048183963
100.372046276969
100.372054936133
100.372016628858
100.371887664814
100.371941285364
100.371998259266
100.372000746774
100.372000906953
100.372025468051
100.372053251356
100.37206839227
100.372082403996
100.372237711705
100.372027271062
100.372074152696
100.372086615255
100.371961100169
100.371935155209
100.371988623676
100.371983035957
100.37194436343
100.371931539559
100.371925087398
100.371915100258
100.371836641006
100.371811710152
100.371530673778
100.37096695154
100.371507717632
100.371783060772
100.371776118864
100.371843884289
100.371846327229
100.3718654624
100.371878167923
100.371916802438
100.3718718824
100.371961230906
100.372035420854
100.372041795404
100.371881167401
100.371871467468
100.371869319502
100.371788815923
100.371685675514
100.371733061184
100.371672839411
100.371824788141
100.371879765252
100.37188143328
100.371828248348
100.371838922428
100.371798270451
100.371803038744
100.371779697752
100.371780877539
100.371714632751
100.371702521232
100.371452691936
100.370742957364
100.371428264558
100.371671447163
100.371675650518
100.37172835928
100.371721395913
100.371728232022
100.371755962675
100.371765006289
100.371747028653
100.371809260789
100.371777904567
100.371597210165
100.371619898383
100.371699998754
100.371582492045
100.371656719621
100.371594357523
100.371730396891
100.371679672432
100.371713908175
100.371714437087
100.371674864621
100.371704223385
100.371680246559
100.371672254564
100.371638775093
100.371620747553
100.371398171752
100.370691392015
100.371414145325
100.371615572407
100.371622502545
100.371640340185
100.371654035052
100.37165082729
100.371658714158
100.371647643307
100.371599590008
100.371622322347
100.37158185116
100.371573545731
100.371542566033
100.371326631352
100.371199298082
100.371110944765
100.371354952707
100.371240613554
100.371473450705
100.371539688687
100.371556990246
100.371584328128
100.37163199012
100.371626646331
100.371632595188
100.37161691511
100.371606755299
100.371600577051
100.371422869618
100.370639831565
100.371511512949
100.371595010867
100.371602720651
100.371592999294
100.37161187506
100.371580269944
100.371641175208
100.371619340169
100.371537768774
100.371528322863
100.371474807169
100.371332456133
100.371264529535
100.371482372551
100.371533784146
100.371573004332
100.371539953902
100.371485797286
100.371327145256
100.371158934724
100.370716668888
100.370328890237
100.37080919574
100.370749675062
100.371243222972
100.371110063969
100.371365245781
100.371511801627
100.371555535307
100.3716224208
100.371615399766
100.371588973417
100.371561503209
100.371616645045
100.371619733694
100.371582849893
100.371590700437
100.371545159057
100.371293470788
100.370284185156
100.368753126466
100.370574444774
100.371413812143
100.371536652883
100.37159139224
100.371589960537
100.371619033058
100.371615425689
100.371571084065
100.371657716838
100.371677946829
100.371569563942
100.371581659671
100.371525106087
100.371380665196
100.371179678466
100.371475127045
100.371573822845
100.371625114794
100.371655444864
100.371613049422
100.37145689771
100.371155337253
100.370750553796
100.371070447827
100.371454800429
100.371299132621
100.371596585281
100.371702558018
100.371733743247
100.37166644665
100.371748307985
100.37170526037
100.371596546686
100.371563741828
100.371623493866
100.371574009883
100.371589145094
100.371534790592
100.371454612389
100.37073047917
100.369027664189
100.371051450025
100.371528240744
100.371566450377
100.371584438165
100.371649101512
100.371654227115
100.371590889134
100.37157071999
100.371496398029
100.371277434723
100.37058445041
100.369062938056
100.367625763987
100.369838016705
100.370988730893
100.371363815834
100.371506295439
100.371573812023
100.371601698296
100.37162696425
100.371719757975
100.371791329446
100.371718912385
100.371795822057
100.37177341457
100.371674915906
100.371533185126
100.371770412327
100.371839303813
100.371813121404
100.37181609559
100.371879737745
100.371767510288
100.371528558825
100.371088491929
100.371587575866
100.371707989814
100.371886359705
100.371854887811
100.371924268991
100.371863046529
100.371700454885
100.371785487042
100.371798430728
100.37160615955
100.371588657961
100.371630025985
100.371649691675
100.371540562792
100.371493748182
100.371392285809
100.371186774576
100.37020654816
100.368634450125
100.370883752204
100.371360566455
100.371383189093
100.371472857359
100.371512056016
100.371610675977
100.371557390677
100.371538959926
100.371527147213
100.371761203034
100.371734914241
100.371774155892
100.371865944316
100.371814049349
100.371587237561
100.371034484925
100.371572967814
100.371629079526
100.371846482748
100.371820100076
100.371853287878
100.371781483538
100.371642190099
100.371701423936
100.371555969762
100.371516995023
100.3714529436
100.371449847346
100.371374016409
100.371293230976
100.371205887143
100.370689559778
100.368975702455
100.367927555558
100.370156175219
100.371128803919
100.371245901328
100.371318038484
100.371385697563
100.37139926779
100.371466383125
100.371473414241
100.37167766499
100.371680830731
100.371721863464
100.371845971049
100.371836326725
100.371609345871
100.371113864019
100.371636923527
100.371882670996
100.371831503466
100.371854263543
100.371856887314
100.37173862775
100.371632454895
100.371649789329
100.371518593207
100.371452413249
100.371416355828
100.371357430799
100.371342277185
100.371268854793
100.371242427039
100.370578858775
100.369325890502
100.371111843718
100.371288018426
100.371303423801
100.37131766454
100.371402287864
100.371406264406
100.371445800702
100.37163922168
100.371631841393
100.371626793377
100.371577280402
100.371732444794
100.371873718101
100.371931771842
100.37175260239
100.371204661277
100.3716754348
100.371879980916
100.371842015565
100.371720300683
100.371687705847
100.371855933181
100.371877642846
100.371648057329
100.37118786749
100.371691319193
100.371737886021
100.371866480794
100.371898161163
100.371842474388
100.371738348444
100.371623144363
100.371627123328
100.371658487876
100.371502523431
100.371412846332
100.371417689799
100.371415877244
100.37138463361
100.371346837193
100.371292428857
100.371223999938
100.371127453772
100.369722303564
100.368706562516
100.370901851211
100.371340640055
100.371280023577
100.371332619392
100.37137405547
100.371426464402
100.371441988517
100.371437889565
100.371470254504
100.37148795874
100.371655040065
100.371635195469
100.371698052233
100.371624425278
100.371765032904
100.371868958039
100.371903463035
100.371764165789
100.371201803548
100.371640121875
100.371847710224
100.371839616885
100.371734095884
100.371738664294
100.371861279469
100.371831169392
100.371597497989
100.371105998792
100.371604173727
100.371705690481
100.371843616512
100.371886674688
100.371872081285
100.371797569873
100.371721660338
100.371704074187
100.371724126938
100.371585438067
100.371486145092
100.371476325168
100.371460485005
100.371400218104
100.371376681457
100.371295409291
100.371249033701
100.370759072841
100.369157005029
100.368484872791
100.370445408579
100.371257435816
100.371334920992
100.371416566069
100.371450904623
100.37146693962
100.371521411508
100.371572014965
100.371524685758
100.371513957222
100.371485736617
100.371498346138
100.371415583192
100.370914449202
100.370096139439
100.371362355825
100.371540554353
100.371559026856
100.371574481714
100.371579071598
100.371646660976
100.37160867945
100.371780320817
100.371738692313
100.371823450568
100.37175245013
100.371845481437
100.371912547294
100.371906907227
100.371677380729
100.371785008593
100.371852926021
100.371794247513
100.371884177464
100.37193894046
100.37189464568
100.371712006372
100.371269562494
100.371492691247
100.371750155375
100.371824513284
100.371789276222
100.371776601481
100.37177424388
100.371654183769
100.371640103996
100.371709189065
100.371632826738
100.371645615085
100.371617357336
100.371628711794
100.37148254139
100.370699664282
100.370477033993
100.371472917613
100.371658910905
100.37169880944
100.371708910449
100.371698467367
100.371766727547
100.371680865336
100.371859234687
100.371840461232
100.371839625681
100.37188257872
100.371807664603
100.371589772891
100.371143192745
100.371411945078
100.37166256933
100.371761676609
100.371762365195
100.371789449239
100.37175288207
100.371739070805
100.371725025244
100.371775342973
100.371730169705
100.371740878277
100.37172400057
100.371727155008
100.371634210036
100.371074874452
100.371264006459
100.37171511099
100.371722785505
100.371769848481
100.371770713192
100.371771702351
100.371756256255
100.371785712964
100.371753639173
100.371837431733
100.371804274424
100.371820888435
100.371720712125
100.371535225403
100.371112957438
100.371433336125
100.371645766424
100.371748962183
100.37174599201
100.371777291161
100.371824791967
100.371796298622
100.371808641108
100.371708684442
100.371533157098
100.371200279563
100.371470126484
100.371682601622
100.371778534037
100.371760924355
100.371792256571
100.371772365355
100.371773502248
100.371813610189
100.371789265787
100.371804134941
100.371815777429
100.371811880227
100.371813722587
100.371823821864
100.371440557938
100.371737305776
100.371802982074
100.371845884677
100.371865509221
100.371850475756
100.371833094255
100.371811859825
100.371828195895
100.371793585593
100.371832661978
100.37180599797
100.371830275749
100.37174875841
100.371646547041
100.371335062987
100.371590696718
100.371734223381
100.371810806466
100.371787813223
100.371820131111
100.371862581819
100.371833973443
100.371856685159
100.371818347794
100.371766625973
100.371540037577
100.371713762918
100.371813066992
100.371867793037
100.371839664024
100.371858082963
100.371823743403
100.371822351321
100.371852761388
100.371845676351
100.371874452262
100.371886115284
100.371896986458
100.371930195714
100.371924242525
100.371781917935
100.371941529886
100.371675498358
100.370408565016
100.370769160043
100.369052496666
100.369679291189
100.367988702549
100.368860947611
100.367439425427
100.36657321687
100.367323750196
100.366488075659
100.367543893071
100.366634419954
100.365970153559
100.366954221191
100.366284276759
100.365900439489
100.367089795318
100.366917354765
100.366887291376
100.368698594221
100.368907866576
100.369128865878
100.369442138512
100.369799693504
100.371170727768
100.370881916551
100.371291748715
100.371662853218
100.371913575424
100.372256541789
100.372165451617
100.37223121244
100.372254693611
100.37228659033
100.372307261372
100.372349477217
100.372399063814
100.372573745612
100.372748762794
100.37294465205
100.373040613076
100.373058108104
100.372904094678
100.372831914108
100.372635981966
100.372371128381
100.372273466578
100.372338853737
100.372414727997
100.372662411102
100.372432333948
100.372303642728
100.372220527544
100.372034505058
100.371783616668
100.37140240914
100.371057959597
100.371219786778
100.371310920571
100.371187334163
100.370998598685
100.371130076068
100.371210659128
100.371425783752
100.371552978444
100.371501572173
100.371571703643
100.37172330089
100.371696303799
100.371773629809
100.371718421971
100.371906871424
100.371781768637
100.371844870125
100.371906668259
100.371966558497
100.37205217071
100.372112418192
100.372175347323
100.372200300371
100.372227186587
100.372252104526
100.372269810803
100.372377775899
100.372590038445
100.372781817247
100.372887230375
100.372911342431
100.372694270939
100.37246428838
100.372174189187
100.372152587072
100.372191987776
100.372158772729
100.372220192397
100.372435417614
100.372506741659
100.372688764005
100.372859304996
100.373051884795
100.373168965687
100.373189849763
100.373110598426
100.372907708713
100.372669599479
100.372527650574
100.372118698549
100.371682919351
100.371239577455
100.371369098232
100.37150371294
100.371442498733
100.371314058253
100.37123142557
100.370449984028
100.369966048103
100.369821436293
100.369753771327
100.369606111795
100.36979150685
100.370150196484
100.370322238949
100.370373437191
100.370009528186
100.370391658255
100.37066604684
100.370756720548
100.370540826274
100.371672206228
100.371895186832
100.371875849589
100.371973424104
100.371999906818
100.372103547421
100.372153365951
100.372153799969
100.372173112887
100.372146892368
100.372212241151
100.372241637582
100.372283294294
100.37232214585
100.372353030349
100.372372523097
100.372453452961
100.372519324297
100.372598333471
100.372782723111
100.372977045202
100.373194140324
100.373306861545
100.373326202778
100.373272849438
100.373073563973
100.372826053622
100.372429548509
100.371991730307
100.371532350157
100.371380137156
100.370663295379
100.370298926884
100.370163526247
100.370053855566
100.369942965657
100.369697048022
100.36973933704
100.370103781958
100.3703643816
100.370414950287
100.370535110118
100.370216756192
100.37061200675
100.370867587751
100.370633873933
100.371317899439
100.371766599997
100.372184471621
100.372290308146
100.37226886881
100.372240263639
100.37233067675
100.372387856124
100.372426169125
100.372506031989
100.372534948642
100.372597860512
100.372667788295
100.372881505524
100.373096290763
100.373306481567
100.373424870321
100.373451267554
100.373393392517
100.373200328099
100.372939514145
100.372559075199
100.372120858871
100.371640912832
100.370959499232
100.370655565491
100.370510081751
100.370149087292
100.369895521127
100.369792174664
100.369614797649
100.369398979491
100.369631735291
100.369904069261
100.369618731057
100.369492369894
100.369270775322
100.368991822104
100.368734413384
100.368542464687
100.368394666446
100.3683307598
100.36858355801
100.368837833745
100.369032574363
100.369281060477
100.36946807089
100.369101393711
100.369193115177
100.369479281737
100.369548584554
100.370398406641
100.371030411766
100.371761060919
100.372097909778
100.372155812261
100.372238987046
100.372259595362
100.37241220444
100.372339104018
100.372338905878
100.372386178347
100.372454598224
100.372518552821
100.372575661742
100.372598780409
100.372675727864
100.372771489845
100.373014733011
100.373235786321
100.373435520469
100.373564382388
100.373588776868
100.373540326332
100.37334488792
100.373080446778
100.372688105217
100.372261519003
100.371790117272
100.371110124361
100.370817738182
100.370513491784
100.370300601111
100.370252029096
100.370004114026
100.369836946229
100.370128244261
100.369876218644
100.369635985726
100.369398438645
100.3690715105
100.368774148699
100.368319580389
100.368566431166
100.368964156776
100.369247017888
100.369382287858
100.36960428182
100.369586616535
100.369408200782
100.368649291297
100.368905392311
100.369173796579
100.369272863397
100.369444095627
100.368987364903
100.368451735514
100.367782999674
100.367164879628
100.365904626935
100.365907067626
100.366518407167
100.367200595406
100.367757542214
100.368294759931
100.368798612712
100.369820979566
100.367290986165
100.36682417849
100.366564719344
100.366391093536
100.366058949833
100.365757611324
100.364731412314
100.363935725054
100.361465663964
100.365022203832
100.366161990477
100.365232800003
100.363965424117
100.363167645882
100.361626535916
100.360177397581
100.360787285942
100.361675348487
100.363414846886
100.363333360186
100.363955973763
100.365003728631
100.366068376965
100.366737383234
100.367471336849
100.368071890092
100.368692247572
100.369192750415
100.369661438081
100.369267766657
100.370160272051
100.367959820573
100.372941144251
100.37301607842
100.372767553378
100.372387453297
100.371856902057
100.371071937871
100.369860398437
100.368313577525
100.367303869967
100.366320893505
100.368356642793
100.368628760818
100.366634614736
100.363789319222
100.362059195027
100.360799489929
100.353064276513
100.355538348373
100.35602122618
100.357773718174
100.36002979669
100.361408554532
100.366114161023
100.36820828554
100.37031038363
100.370317300245
100.370616665345
100.369180185557
100.369574305266
100.36993155263
100.37039494915
100.370724902892
100.371280151742
100.372221648027
100.372463423153
100.372411767991
100.37232053025
100.372436242113
100.372498558465
100.372584943623
100.372651132962
100.372665048291
100.372769537309
100.372858986995
100.373085482475
100.373323784093
100.373531292349
100.37366765238
100.373694477405
100.373655265284
100.373438930479
100.373179231489
100.372755744361
100.372319698233
100.371880398408
100.37122420608
100.37095546046
100.37065005861
100.370477806505
100.37044093719
100.370322599312
100.370575102519
100.37038254546
100.370442216731
100.37057732888
100.370726796446
100.370524045668
100.370353730908
100.369993635418
100.370122494423
100.370347093297
100.370191879994
100.369932844672
100.369566730681
100.370014143102
100.369628747666
100.369273176702
100.368929558572
100.368550870475
100.368135349504
100.367760246256
100.367094325452
100.367426032326
100.367925999851
100.368335189164
100.368591530309
100.368923652232
100.369266668132
100.369249285246
100.3689908151
100.36845286446
100.367990511847
100.367826537094
100.368358674577
100.3684764861
100.369990958271
100.370948608109
100.37129002593
100.371586189157
100.37253722214
100.372625189322
100.372489784861
100.372424220785
100.372549755147
100.372636647151
100.372700538611
100.372727158452
100.372853726139
100.372932834846
100.373131323437
100.373425345061
100.373646253364
100.373773923733
100.37379487031
100.373764448494
100.373540913549
100.373283714989
100.37287304804
100.372475950605
100.372005350136
100.37140948286