/*--------------------------------*- C++ -*----------------------------------*\
| =========                 |                                                 |
| \\      /  F ield         | OpenFOAM: The Open Source CFD Toolbox           |
|  \\    /   O peration     | Version:  v1612+                                |
|   \\  /    A nd           | Web:      www.OpenFOAM.com                      |
|    \\/     M anipulation  |                                                 |
\*---------------------------------------------------------------------------*/
FoamFile
{
    version     2.0;
    format      ascii;
    class       volScalarField;
    location    "1.1";
    object      p;
}
// * * * * * * * * * * * * * * * * * * * * * * * * * * * * * * * * * * * * * //

dimensions      [0 2 -2 0 0 0 0];

internalField   nonuniform List<scalar> 
79587
(
100.073157791679
100.075102011564
100.0717265913
100.076073758606
100.083115478356
100.083230974852
100.081186437914
100.081711285896
100.081824338666
100.082198580605
100.082485930281
100.082298107217
100.084176508067
100.083864703354
100.086202603671
100.086160514215
100.082842773941
100.078196151039
100.077178375531
100.07717542946
100.078165806429
100.077882845702
100.077101381937
100.078646412148
100.085055666182
100.084954280039
100.079297895821
100.077629431401
100.077602945506
100.076786127129
100.076659005835
100.0777272173
100.077638940101
100.079254027308
100.08471706765
100.084620789513
100.078446364167
100.077061623493
100.077871065332
100.077941838092
100.077038456256
100.077043015947
100.078110308324
100.0826747652
100.085817876317
100.085674155157
100.078775657973
100.078323688137
100.076037497756
100.075328801303
100.07545665049
100.075324162516
100.074731666248
100.073410089968
100.074527345562
100.07584497604
100.075943793818
100.075036895022
100.074071060091
100.072846942418
100.072517386089
100.073107622853
100.073031470509
100.072355890941
100.072857964003
100.074053036878
100.07488281518
100.075968079273
100.076043582223
100.074628296902
100.073549986994
100.074903988686
100.075396960075
100.075501485468
100.07528779572
100.075992869208
100.078531249395
100.079253123996
100.076843366181
100.079744666598
100.082659641772
100.084011040109
100.081688570352
100.081497933596
100.082890310134
100.081171613405
100.078810247857
100.07458027023
100.07985742939
100.068626724224
100.057624411493
100.063393569519
100.064490370417
100.075435120788
100.071106005616
100.071735299695
100.074059834429
100.072184863661
100.07070311487
100.070118135935
100.072838396202
100.074655469785
100.070515053719
100.069753116181
100.071951805091
100.068690464068
100.067578818731
100.068809957571
100.068811450248
100.06762452156
100.068700409797
100.071894051049
100.069625658999
100.070060429552
100.074698772448
100.073274171522
100.070405603856
100.070845342646
100.072233084318
100.074052891556
100.071638116895
100.07094508121
100.07569449899
100.075718801567
100.07269995335
100.075811918709
100.082023048743
100.086711377522
100.07965532428
100.07959867023
100.084404054917
100.100347258562
100.070044608093
100.070565917873
100.054875076502
100.027888685439
100.028825491517
100.024651774101
100.024952361206
100.031241675792
100.062660553059
100.073867598172
100.069573501043
100.069314390887
100.076006410625
100.064225221625
100.064921835222
100.064755289573
100.064986491228
100.07274258795
100.068279989007
100.068262203467
100.072679657232
100.065004336917
100.064817397672
100.064953457963
100.064084610351
100.062786300223
100.064787968825
100.062744988746
100.023112171858
100.025528864279
100.026334617528
100.025970634395
100.025366439294
100.025455912496
100.026932052637
100.027549309897
100.031679823168
100.0289301179
100.029918870629
100.033431072883
100.033435831259
100.029964442214
100.028942539645
100.031487560113
100.030989837311
100.024382941041
100.025197291913
100.031766626233
100.032439107187
100.031035053747
100.030686003487
100.031960511247
100.031869840559
100.03105711382
100.031388086092
100.031628939507
100.026607813381
100.027433276925
100.028665833916
100.028622250079
100.027350835797
100.026447745125
100.027350220069
100.026680678131
100.030871176149
100.032213794069
100.032801557832
100.03295021738
100.03232537204
100.032426667854
100.033086994775
100.032973456527
100.032414238599
100.032616607548
100.032773489567
100.032787710006
100.031969692808
100.031629036338
100.031569628109
100.031824722138
100.031374409874
100.031172706769
100.032424051167
100.030698850253
100.030513116647
100.030686796051
100.03050602373
100.030786930399
100.031103810111
100.030985384979
100.030849802212
100.030645736961
100.030831191209
100.030824042228
100.0308360445
100.030724528291
100.032448061673
100.032404891186
100.032683675757
100.032580545946
100.03070573481
100.028402539568
100.028422203378
100.028290022957
100.028365982121
100.028280087388
100.028080595486
100.028094130611
100.02830746469
100.028367593469
100.028283784176
100.028457028441
100.028439193645
100.028527113034
100.028495008709
100.028481704921
100.030700546007
100.030815865339
100.028519057905
100.02663820446
100.026528176191
100.026532447756
100.026420475102
100.026480225176
100.026553019163
100.026627556492
100.026357745536
100.026124742672
100.026314051526
100.026265625998
100.026446990205
100.026467402248
100.026601746168
100.026606423285
100.026613822752
100.02497774307
100.024988025794
100.024860861168
100.02482790564
100.024690969241
100.024647308389
100.024468194238
100.024680298964
100.024528631528
100.024202173044
100.024447298493
100.024406107051
100.024615755302
100.024689799394
100.024881849564
100.024941895538
100.023243730927
100.023308953059
100.023275590761
100.02307351545
100.022981228468
100.022766685092
100.022628071211
100.022268106539
100.021840590051
100.021859113855
100.022181246264
100.022352242156
100.022381078439
100.022646345584
100.022791143606
100.023095989472
100.020997397747
100.021290044411
100.021383698677
100.021258005005
100.020937406449
100.020754970492
100.02038305197
100.020160390634
100.01991995154
100.018951531808
100.018918761186
100.019680142832
100.019726072184
100.019930986618
100.020273364748
100.020534440186
100.017286960159
100.01815231628
100.018686008952
100.018807624521
100.018462719549
100.017823118475
100.017794384931
100.01716886034
100.016541462763
100.016584287746
100.014869308456
100.014741951063
100.01616279014
100.015947450083
100.016608716051
100.017133667298
100.012378263324
100.01169596777
100.013551277088
100.014749110273
100.014901380483
100.013985670373
100.012484658865
100.013319545969
100.012533306232
100.010259573371
100.011433834827
100.007712544867
100.007499745115
100.01084984718
100.009459853316
100.011650288987
99.9998583979807
100.000198440939
99.9953857056341
99.9989478948507
100.00317822352
100.00336907799
99.9994251855579
99.996861704763
100.00173548345
100.001189773913
99.9932449976283
99.997050138705
99.992197947901
99.991839839856
99.9961129480913
99.9923719375795
99.9984607463199
100.007473271698
100.006916143599
100.001630987217
100.009138945033
100.011756792772
100.012096395434
100.010079200199
100.003227972707
100.008779720514
100.009516914406
100.000398010266
99.9958322098538
100.026629374837
100.048180509405
100.047674834477
100.02543316861
99.9924004620463
99.9932122939811
100.086264595249
100.169918868701
100.106073179207
100.105799719659
100.091382873833
100.079960119948
100.069182828334
100.067168678558
100.0644184236
100.064870366208
100.079252302058
100.07252138677
100.073120903631
100.080540037183
100.067318283495
100.067068721423
100.070486424199
100.072210578761
100.081845355761
100.092378782005
100.184069555612
100.200344680934
100.199749460191
100.182429590862
100.184896023611
100.174396247543
100.199387310673
100.240401845804
100.152965956296
100.155861514942
100.207757382511
100.172979125712
100.200935115894
100.226860989109
100.167736123086
100.168316822206
100.228078443599
100.202682573637
100.175904570247
100.211312882579
100.159045553989
100.156710864798
100.203817791671
100.178664000701
100.187333593781
100.275174455184
100.320357837744
100.289021998879
100.288137166575
100.318231881414
100.290283639412
100.272300286951
100.39664906131
100.427434132679
100.38065613546
100.398133793776
100.398715684022
100.34942195622
100.29204376073
100.323152119762
100.270344259653
100.393410361066
100.42749726595
100.381841596469
100.38408203652
100.310139773766
100.314245852099
100.243371264008
100.292217241858
100.377087969107
100.421630840965
100.387277854698
100.396375608132
100.331889354646
100.286215191136
100.328168045405
100.310168954449
100.315859097234
100.341345954365
100.251483578397
100.251829853523
100.341579242907
100.317213303467
100.312231674285
100.330985202494
100.28942723879
100.336131220929
100.320439361256
100.316595693106
100.32878873482
100.296326067046
100.293888866914
100.353685204249
100.401006815704
100.382611547548
100.397168050914
100.428303185213
100.428287322735
100.396179014554
100.367318881486
100.367699245229
100.446233735893
100.469867097127
100.460180540386
100.460226034776
100.461399327669
100.448072059226
100.431629830226
100.475836687744
100.476916090988
100.474007526741
100.468160647983
100.462868942238
100.45744233309
100.441602716637
100.439067964102
100.440923649283
100.450547040436
100.420435388905
100.421115363991
100.423272920929
100.432073364429
100.45494344093
100.452913293342
100.436348059428
100.394484106566
100.404207418165
100.384762281902
100.419348978594
100.409056456035
100.409007080501
100.419158243097
100.385891732378
100.405773886238
100.397287183675
100.400313552509
100.393954268707
100.390993958955
100.388127836393
100.403627765602
100.443810722707
100.44410385659
100.449958004932
100.460968187878
100.473641067175
100.471383662126
100.480353431101
100.480153696839
100.4717159265
100.470987869584
100.470558908023
100.476648871761
100.473645759897
100.475483053707
100.476564184202
100.478594563077
100.472371746747
100.475683166978
100.47694771905
100.476024058962
100.476670629038
100.477440994314
100.475317415494
100.475802382555
100.474756493304
100.474629181412
100.472538322831
100.467990977885
100.463840356465
100.466436130171
100.45572291082
100.474780765593
100.475289697229
100.472017264162
100.47124882555
100.475157061646
100.468124535795
100.466370791213
100.470566085152
100.452616503439
100.454272801102
100.455811157187
100.469912628829
100.467886900276
100.467444209654
100.469499101364
100.45530869887
100.45127824577
100.456407870347
100.443400208986
100.443192713035
100.456017886433
100.450746384446
100.454743171153
100.437594244686
100.454882330046
100.457134032289
100.436866287061
100.430382626476
100.428044894736
100.426977307852
100.446334112393
100.460111717705
100.46588220434
100.46520901932
100.468139937607
100.475229092298
100.4726942901
100.478885124676
100.477049064819
100.476821030344
100.477410039218
100.4773003897
100.476573909965
100.476593825007
100.4764259934
100.47555335581
100.477358224567
100.477398919949
100.476989410771
100.477255747396
100.477100585267
100.476143268349
100.475931462118
100.476801737151
100.476849081948
100.477272970399
100.477157656145
100.47630433262
100.477314202163
100.47694106496
100.476528186263
100.476462725293
100.476328608339
100.475095296636
100.475067208193
100.473206643915
100.472212249662
100.474718172436
100.475193720184
100.47326989422
100.472354242772
100.472883008379
100.470734173081
100.473618061996
100.474540217267
100.476246307576
100.469503389365
100.470679066894
100.472510867194
100.472342111166
100.474393379703
100.468427970948
100.430048833881
100.42683177072
100.430328127342
100.441363600242
100.443383082298
100.433817978465
100.433378099285
100.428992414921
100.425364952561
100.422194058058
100.424841553772
100.415806951055
100.424031147739
100.441657041547
100.429883214174
100.434344008981
100.444397719603
100.466136211823
100.465422224147
100.469914352431
100.4589387646
100.461095590331
100.464007407225
100.466464303222
100.459970009049
100.450057738164
100.450957179733
100.426988725624
100.430724561715
100.433983348917
100.432102756005
100.425340531143
100.419559243221
100.432089856971
100.420336451089
100.420312847312
100.434256122739
100.437818128375
100.424211678475
100.422394412767
100.444443128707
100.475408163202
100.475630051214
100.463698147426
100.48001495904
100.463464137893
100.493743663378
100.475425460482
100.459965216169
100.46527373203
100.467695887511
100.472004555166
100.464947431356
100.47002811345
100.453961769224
100.433445429389
100.426789252853
100.431353397021
100.410459094713
100.415769153419
100.438859568288
100.435024120593
100.426857757889
100.421294232542
100.435844393489
100.424940385797
100.423553773839
100.433018854887
100.42328857621
100.422509955256
100.424100555463
100.42531046605
100.422696096324
100.444599627226
100.47588524312
100.476047534223
100.464547588433
100.481863179076
100.478496494479
100.436011862321
100.43693956837
100.435533163536
100.428129949201
100.434952692006
100.477005300476
100.478589534396
100.475734905031
100.488288200678
100.482871983718
100.463955263073
100.446386177526
100.464655761003
100.469485040028
100.468804270158
100.469226086295
100.470209936689
100.454267012651
100.433561807271
100.433395281722
100.433120906118
100.437557118046
100.43693419229
100.433458033097
100.436361904926
100.428521377096
100.419173105304
100.425253183598
100.437397263925
100.431066304907
100.444760214482
100.433714225708
100.433455401976
100.441638583283
100.430575263463
100.431770158139
100.424797560958
100.435633946329
100.436157065295
100.439195427941
100.435712085536
100.446243942548
100.46874734394
100.4673734512
100.472769583379
100.46650212278
100.497683467545
100.481240734434
100.430766201124
100.436587208893
100.435033839155
100.471181621165
100.472433880409
100.491986124028
100.488154904813
100.489037377664
100.470985591505
100.47390698377
100.465985956842
100.451343809295
100.428272652076
100.427789370329
100.432306705409
100.4377502125
100.436849457636
100.440819839736
100.440534168911
100.43363705576
100.433231344093
100.448518341597
100.444020654447
100.448957613781
100.450760575387
100.445426533714
100.443180446375
100.442106563206
100.442446824411
100.449238759182
100.450781043491
100.442678838367
100.443619583475
100.443788277945
100.436038838385
100.427143445904
100.423934940372
100.424786548856
100.432256374253
100.445783821876
100.465454942485
100.462924428911
100.464767215532
100.479835725821
100.486543731363
100.491989258369
100.478481070293
100.472729846301
100.473382616273
100.493205340081
100.467408503658
100.464695750042
100.469914880186
100.466047771035
100.458675530212
100.47232115318
100.472654417395
100.473571618112
100.472245413506
100.470690425343
100.470035399004
100.4723434536
100.473827690111
100.474814636096
100.47598726989
100.476724349094
100.476959868927
100.476572276935
100.475764317036
100.474361516561
100.472675333166
100.471272058574
100.47460332007
100.482619357295
100.507372180607
100.511042446299
100.462279492585
100.423231959164
100.381197369645
100.357074624172
100.37548784862
100.37326734399
100.37187915946
100.372486765183
100.373436822972
100.374374279743
100.375504323318
100.376926979184
100.378519939
100.380060142488
100.381321253112
100.382158604732
100.382519654228
100.382588676136
100.382554304023
100.382350147764
100.381878723998
100.381094623855
100.379972488943
100.378540359366
100.376823970718
100.374864879425
100.372837703868
100.370948574857
100.369353362874
100.368133458603
100.36727353041
100.366770469412
100.366613586088
100.366768675291
100.367247603676
100.368103776877
100.369375863726
100.370983627278
100.372721101398
100.373820732507
100.373988650815
100.37384892218
100.373910687671
100.373926242895
100.374038091251
100.374277737165
100.374258382551
100.374371660386
100.374408924105
100.374650521066
100.374804591059
100.374993492252
100.375199673286
100.375218133964
100.375341654263
100.375211207384
100.37516280476
100.375075681236
100.374989474972
100.374898156745
100.374812423762
100.374689901573
100.374612642569
100.374482058866
100.374358709349
100.374215615344
100.374059833364
100.373856843058
100.373835540959
100.373786789521
100.374051310489
100.374191246697
100.374339396125
100.374461288833
100.374598815822
100.374686791416
100.374791678262
100.374887654474
100.374983546493
100.375067996067
100.375169121908
100.375289399289
100.375058380921
100.374922103267
100.374670978266
100.374533440912
100.374294480296
100.374299631456
100.374190065785
100.374210263378
100.373951593841
100.373861709059
100.373724883639
100.37377533796
100.373873634425
100.37412781553
100.374124438634
100.374223597789
100.374204940388
100.374437521289
100.374582440717
100.374851627986
100.37497080736
100.374888480961
100.374770570387
100.374471460403
100.374330183055
100.374126878067
100.374146699872
100.374055285575
100.374020897107
100.373796947804
100.373713677402
100.373550951255
100.373612512868
100.373720962633
100.373915679456
100.373972476488
100.374059052508
100.374051811444
100.374238845088
100.374354860224
100.374661699198
100.374809242644
100.374711715144
100.374559758479
100.374240870452
100.374151483462
100.373974569261
100.373945613103
100.373885042782
100.373822243146
100.373642961569
100.373556017051
100.373394316163
100.373447517152
100.373561263414
100.373719769665
100.373773298373
100.373765556592
100.373993870233
100.374019594524
100.374161343887
100.374459574709
100.374621692539
100.374532931873
100.374354081011
100.374031746294
100.373869607946
100.37382094925
100.373658975021
100.373679701352
100.37362205651
100.373481693897
100.373404090707
100.373277931203
100.37329117178
100.373397961361
100.373519739851
100.373567902971
100.373568832023
100.373701268068
100.373749590674
100.373883918306
100.374222287881
100.37442067851
100.374274580326
100.374081051349
100.373725924026
100.373630695923
100.37362935783
100.373521929107
100.373493958638
100.373452019705
100.373424850851
100.373320187242
100.373260370007
100.373178173987
100.373131462793
100.373238325912
100.373337801361
100.373366409765
100.373418942149
100.373438776656
100.373556158099
100.373655561582
100.373973823397
100.374151839082
100.374018063172
100.373840781
100.373529874058
100.373427394994
100.373341357381
100.373325256116
100.373273862711
100.373260624339
100.373163764956
100.373115501577
100.373023007126
100.372990370269
100.373085078672
100.37318183066
100.373176896529
100.373239626052
100.373263937579
100.373333949654
100.373395285585
100.373701973906
100.373882759497
100.373667444408
100.373538500835
100.373272717096
100.373256523934
100.373167067055
100.373141393794
100.373093595692
100.373104701785
100.373016585587
100.372981211142
100.372863149922
100.372861653419
100.372936143327
100.372998727295
100.373001054806
100.373056999162
100.373078012825
100.373150661083
100.373136708671
100.373401464007
100.373532085871
100.373557574597
100.37343654837
100.373349527086
100.373337176817
100.373166045164
100.373082389758
100.373063708601
100.372949953006
100.372989263205
100.372953041933
100.372898843926
100.372895805661
100.3728517512
100.372774002119
100.372634298149
100.372604649968
100.372675312632
100.372625468423
100.372704246829
100.372739522993
100.37278433268
100.372806038312
100.372823455858
100.372873937347
100.372903290809
100.372874885591
100.373041640874
100.373119204756
100.373335010455
100.373227481292
100.373240394447
100.373202966956
100.373017429664
100.372871614546
100.372883386336
100.372810861822
100.373038817415
100.372966541104
100.372912966009
100.37278962415
100.372789078277
100.372761556952
100.372719361018
100.372685534982
100.372703810499
100.372662257497
100.372638457409
100.372539074737
100.372450089794
100.372524046165
100.372621757199
100.372608917726
100.372655616463
100.372638386673
100.372648437349
100.372665724433
100.372730514198
100.372729475654
100.372852257668
100.372839645299
100.372687901407
100.372714464324
100.372628628052
100.372632029659
100.372547988887
100.372585324246
100.372746852361
100.372610176339
100.372646053173
100.372623663004
100.37261864788
100.372592984179
100.372606548182
100.372563282392
100.37256545018
100.372464821007
100.372387968111
100.372472718699
100.372555215844
100.372538068571
100.372553094607
100.372548995896
100.372568711628
100.372568354177
100.372551666023
100.372542953748
100.372591654605
100.372565965263
100.372586068901
100.372593483784
100.372759362547
100.372736184524
100.372823801657
100.372901014526
100.372982465655
100.373040331683
100.373098666892
100.373150662557
100.373211497802
100.373282505163
100.373376406612
100.373474757977
100.373561577694
100.37364349763
100.373742293646
100.373825169811
100.373912453336
100.374010218715
100.374121291981
100.374221954158
100.374465823748
100.374551904613
100.374807720411
100.374874642653
100.375093585591
100.37527084274
100.375258181071
100.375432085359
100.375364697883
100.37527295969
100.375266054219
100.375029804409
100.374897526623
100.374832387976
100.374686802305
100.374577691675
100.374470162565
100.37436639444
100.374237351501
100.374138020347
100.374035966905
100.37392656569
100.373770403108
100.373670147071
100.373548573267
100.373665984546
100.373638649289
100.37389411253
100.374050192956
100.374186864357
100.374269806721
100.374379250559
100.374512662287
100.374608757584
100.37469444244
100.374808148935
100.374932722438
100.375022842625
100.375092865508
100.375251995649
100.375382588273
100.375411156506
100.375286805024
100.375071146394
100.374727933413
100.374313411686
100.374446761528
100.374549791272
100.374873980404
100.375167461781
100.375339558469
100.375463473389
100.375424051715
100.375328612071
100.375170955918
100.374911475897
100.374549650132
100.374458431879
100.374369889701
100.374159322486
100.374010528245
100.373668037218
100.373475530799
100.373330820979
100.373174066547
100.373045235682
100.372873265267
100.372750141837
100.372618223954
100.372486164812
100.372335815946
100.372566670832
100.372864217785
100.373049598481
100.373131459312
100.373258061159
100.373390787309
100.373546123166
100.373646388673
100.37379831523
100.373924631626
100.374108917979
100.374465198677
100.374491361225
100.374683575324
100.374831681928
100.375134407706
100.374942333994
100.374860894184
100.37501523253
100.374817545822
100.37457420331
100.374037851141
100.373910538378
100.374124442059
100.374342332811
100.374332168881
100.374388036219
100.374521777118
100.374602147556
100.374706873849
100.374938160342
100.375219778281
100.375385436397
100.375499422744
100.375476871583
100.37536660318
100.375142410775
100.37490065419
100.374803550542
100.374585644476
100.37426870013
100.373848297683
100.373763515264
100.373587936725
100.373336532577
100.373124906531
100.372959699943
100.372782065564
100.372563640294
100.37236068043
100.37216468974
100.372035406383
100.371840029461
100.371666808203
100.371438977725
100.371271556792
100.371134887171
100.371053418573
100.370850130644
100.370677245586
100.370831757216
100.371248657207
100.371465390498
100.371579063184
100.371563753571
100.37168236101
100.371820046505
100.372014762466
100.372162353049
100.372350951626
100.37248400807
100.372661654084
100.37283008464
100.373072606665
100.373344461119
100.373508652367
100.373863780517
100.37390351026
100.374096410767
100.373893077821
100.374162070674
100.374421696575
100.374443751016
100.374428934656
100.374062771753
100.374102427447
100.374161777578
100.374163441124
100.374344369002
100.37452155576
100.374499788027
100.374665733022
100.374660749288
100.374800631227
100.375001126019
100.375288585818
100.37543653153
100.375558219196
100.375493566201
100.375498606008
100.375458587225
100.375274245551
100.374993308128
100.37466417808
100.374344380813
100.373947973227
100.373484557669
100.373297810384
100.373205345444
100.372995544865
100.372878963616
100.372729118138
100.372567384502
100.372408255524
100.372277101713
100.372029510101
100.371962631851
100.371752465028
100.371547009527
100.371381921214
100.371110217956
100.370863780411
100.370625064705
100.370461545788
100.370257077498
100.370476872278
100.370765922118
100.371018068992
100.371252498791
100.371500046003
100.371616407267
100.371805325368
100.372013429702
100.372219458787
100.372327965813
100.372516950939
100.372717263784
100.37294781095
100.373092231058
100.373343300906
100.373327421607
100.373086644898
100.373329804438
100.373475623356
100.373720346553
100.373622588041
100.373734306421
100.374829428653
100.374665709122
100.374535987104
100.374137115892
100.374069601356
100.374343411299
100.374373381003
100.374604703072
100.374570403208
100.374694164908
100.374708341786
100.375028932454
100.375215281932
100.375482030242
100.37563378886
100.375558310176
100.375615448115
100.375544363279
100.375493733933
100.375289813746
100.375058600228
100.374657257431
100.374395383929
100.374203540982
100.373981640273
100.373721671296
100.373429011006
100.373098506277
100.373095181272
100.373008604088
100.372862877059
100.372899090292
100.372707479487
100.372562917433
100.372464884422
100.372323610055
100.372460933946
100.372239621406
100.372021676564
100.37186505771
100.371674208574
100.371463001559
100.371175115973
100.370904060806
100.370638785919
100.370350373536
100.370010551971
100.369642657635
100.369286393658
100.368815607163
100.369090777512
100.369535009414
100.36992759399
100.370154091518
100.370388855251
100.370653742308
100.370917891726
100.371209521165
100.371391022386
100.371582309494
100.371794810089
100.372108622651
100.372302156066
100.372266353272
100.372311747735
100.372461495333
100.372613826555
100.372885598659
100.372974876581
100.372964529338
100.372824350917
100.372777870136
100.372820909039
100.372818656932
100.372809979195
100.373986391148
100.371217671791
100.370050948801
100.369459169967
100.368572508712
100.367795814587
100.367233058007
100.36672585675
100.366392280802
100.366060456574
100.365624158153
100.364950541631
100.362106068924
100.359953772871
100.364660752385
100.365081417819
100.365618034534
100.366643983745
100.368020451052
100.36888815449
100.369593987057
100.370130732082
100.370575576196
100.370974323182
100.371204375709
100.371554505546
100.372207105281
100.37093476704
100.372805410259
100.370166798592
100.373840433951
100.3737082919
100.374016509243
100.374090596542
100.374213888075
100.374294184275
100.374533542901
100.37448384185
100.373914251054
100.372984061148
100.371855358301
100.370232324918
100.368586094585
100.367821479883
100.370774726972
100.372478138085
100.369290989003
100.365240560664
100.362543729427
100.361486131462
100.349702393399
100.354007248242
100.352617256516
100.35676110039
100.357907894063
100.359941881324
100.363103255816
100.362068273209
100.358895839257
100.359306538878
100.357333856725
100.35945586056
100.361238070893
100.361810581288
100.362581288223
100.363796020805
100.363672412696
100.366795655063
100.368396708202
100.369941734536
100.371493639056
100.3723947691
100.372514467119
100.372602038093
100.372496577548
100.372992826232
100.373179043505
100.373347444985
100.373510410346
100.373702253139
100.37391434685
100.374114422038
100.374291981817
100.374174948084
100.373928791337
100.374148321821
100.374087965204
100.374218705076
100.374382562956
100.374185887742
100.374283099073
100.374498242105
100.374603240788
100.374557556733
100.374627099725
100.374904789364
100.37509746159
100.375351252599
100.375490475059
100.375614599104
100.375636868603
100.375443983412
100.375219533218
100.374929136887
100.375010672752
100.375139265382
100.375413953817
100.37554803092
100.375605549037
100.3756054195
100.37550415389
100.375341311171
100.375286271788
100.37524069365
100.375058896343
100.374813942237
100.374458457301
100.37402203117
100.373813862171
100.37364657721
100.373516564636
100.373319748104
100.373218848978
100.373038584683
100.373213053544
100.37311337165
100.373263147227
100.373197609983
100.373086314615
100.372921932909
100.373080362462
100.372933608908
100.372838658827
100.372694712313
100.372542687419
100.37236322227
100.372160252722
100.372265969279
100.37202860273
100.371815066407
100.371595332596
100.371350989987
100.371070306335
100.370790528296
100.370289944394
100.370539867855
100.370886860397
100.371158606829
100.371402127357
100.37164256087
100.371869504805
100.372106306446
100.371938820389
100.371989792775
100.372189967771
100.372383727785
100.37261280283
100.372737209049
100.372914439798
100.372735839837
100.372803925864
100.372995353484
100.373079328787
100.373028531942
100.372956311629
100.372787355152
100.372577375503
100.372244398526
100.372219512557
100.372265887042
100.372662488457
100.372934256148
100.373365324114
100.373716225545
100.374055291668
100.374353775552
100.374540744706
100.374342613278
100.374386497406
100.374506188516
100.374723487766
100.374674773353
100.374809710939
100.374875504333
100.375106670633
100.37545322278
100.375333045532
100.375455575402
100.375527153834
100.375434692116
100.375446316893
100.37539566337
100.375182347173
100.374938262835
100.374816525205
100.374534601478
100.37417490037
100.37391774032
100.3735340932
100.373430827347
100.373309574813
100.37329579056
100.373245535325
100.373315332303
100.373231010508
100.373463011264
100.373331031586
100.373514520264
100.37341104957
100.373385691358
100.373205399521
100.373297441754
100.373169411547
100.373077930418
100.37299334789
100.372893885536
100.372690024894
100.372669808273
100.372494793082
100.372305417638
100.372088366854
100.371873933289
100.371651140576
100.3713797818
100.371086590714
100.370782078558
100.370449052077
100.37005068566
100.369674593175
100.370033947369
100.370424091586
100.370624553734
100.370944550911
100.371244595599
100.371509869509
100.371740337873
100.371976758968
100.372207539062
100.372475153626
100.372667723737
100.372547229801
100.372652465466
100.372786990424
100.372872997573
100.373003349206
100.373207490284
100.373091842344
100.373107463752
100.373183599561
100.373361327752
100.373227459625
100.373197342959
100.372943530475
100.372484843358
100.372301538123