/*--------------------------------*- C++ -*----------------------------------*\
| =========                 |                                                 |
| \\      /  F ield         | OpenFOAM: The Open Source CFD Toolbox           |
|  \\    /   O peration     | Version:  v1612+                                |
|   \\  /    A nd           | Web:      www.OpenFOAM.com                      |
|    \\/     M anipulation  |                                                 |
\*---------------------------------------------------------------------------*/
FoamFile
{
    version     2.0;
    format      ascii;
    class       volScalarField;
    location    "0.3";
    object      p;
}
// * * * * * * * * * * * * * * * * * * * * * * * * * * * * * * * * * * * * * //

dimensions      [0 2 -2 0 0 0 0];

internalField   nonuniform List<scalar> 
79506
(
100.130692461445
100.132777891079
100.129010473929
100.133553842219
100.140509203196
100.140749039569
100.138808618647
100.139415621846
100.139805063481
100.139978622312
100.140373366398
100.139995192967
100.141675362322
100.141114500397
100.14324285534
100.143268558983
100.141206908647
100.138326926204
100.135115424951
100.13473440224
100.134836054516
100.136597794763
100.134184593484
100.13538016511
100.13732197266
100.142157071135
100.136759089303
100.135746705088
100.134991174557
100.134636664121
100.1347298133
100.134794476899
100.135622874726
100.136581630305
100.142066625669
100.137081225084
100.135097299018
100.133840337645
100.136221176883
100.134428247085
100.134365124596
100.134753062286
100.137977332352
100.140899327073
100.142851038627
100.142725528327
100.136077732464
100.134884940992
100.131497158651
100.132004791693
100.132533305677
100.132373482478
100.132465863835
100.13247356482
100.130231755281
100.133459699685
100.137151143303
100.135667938441
100.132283679173
100.131341384493
100.130316529187
100.131162636434
100.131246113117
100.130583610116
100.13146411184
100.132471535413
100.135974692314
100.137448012371
100.133726800584
100.130512526515
100.132810975399
100.132833361944
100.132682885183
100.132806434319
100.132174786873
100.131671264775
100.13519755405
100.136446672757
100.134032556777
100.137350069282
100.140525496743
100.142322705947
100.140336681687
100.139776243293
100.140845982115
100.138994345964
100.136512505924
100.132321913025
100.137773740575
100.126189260074
100.114974101583
100.121153621961
100.122768472776
100.132029129505
100.126185789788
100.127332158234
100.130053935396
100.12937187857
100.128874281701
100.128902071166
100.128869362837
100.133449291797
100.134252505941
100.129720276057
100.130082243078
100.127549571241
100.126364195604
100.12725883325
100.127271041475
100.126396100444
100.127660691299
100.130295452232
100.130000592879
100.134536471793
100.133746513975
100.129154894784
100.129261947699
100.129249021938
100.129691350667
100.130351698115
100.127523522212
100.126306121395
100.132477772004
100.132955595976
100.129509546853
100.133357464327
100.139877725945
100.145093921528
100.138540108108
100.138006134979
100.142555689435
100.15802016809
100.126906369393
100.12741711289
100.112387053631
100.08573534285
100.086590852964
100.08227999213
100.082987949909
100.089182025911
100.119411762073
100.129676802541
100.126780436177
100.126540670296
100.130690151914
100.13690568891
100.120185158542
100.120743496622
100.122162531485
100.131502473232
100.126555835416
100.126580078143
100.131621344387
100.122170468229
100.120876576558
100.120377396939
100.118965118667
100.119691454648
100.123220389688
100.121030574953
100.081113721626
100.083168970977
100.084464228518
100.084214423655
100.083138893618
100.083189900468
100.085088764464
100.085516012611
100.089628833903
100.11876366065
100.113910986524
100.097594686161
100.09181501816
100.091742184241
100.089054439375
100.089845743815
100.084352504716
100.084461143924
100.086605181104
100.090338365507
100.090248221038
100.086440893124
100.084303944768
100.089659024827
100.088875351293
100.082504115167
100.083112081126
100.089632848061
100.090089477631
100.089228650805
100.088923096281
100.089795386305
100.089662661017
100.088929094554
100.090160583019
100.090241046678
100.09071611849
100.090790484954
100.090144619831
100.085358493269
100.086168086095
100.086138510223
100.085324473001
100.084320865414
100.085270700127
100.084818625718
100.088748184942
100.090027886961
100.090657974445
100.090944360531
100.090250145487
100.090195482126
100.090910960173
100.090823581825
100.088688703045
100.088483648745
100.08857151914
100.088654249811
100.08872223701
100.088587265179
100.090413221681
100.0895083301
100.089496520128
100.090088050854
100.089639957146
100.088840123825
100.090055870416
100.088374715752
100.088282343011
100.088440253529
100.088540764631
100.08835251748
100.088401675225
100.088705667624
100.086271800557
100.086284624688
100.086230809573
100.086305223163
100.086287871531
100.086334761929
100.086267158755
100.086230560945
100.088547796001
100.090383291313
100.090713068757
100.090554583552
100.088485621868
100.086109718098
100.086094259588
100.085992322229
100.086037981989
100.086080129849
100.086057867303
100.086123909015
100.084234691012
100.084352072952
100.08436806795
100.084314164826
100.084374533782
100.084358443178
100.08438084433
100.084311782971
100.0842775843
100.084278937862
100.08623419822
100.088609695097
100.08901741266
100.086414294774
100.084408020661
100.084183604775
100.084162523874
100.084099739818
100.084162622234
100.084200313153
100.084169226728
100.082464061472
100.082534496805
100.082635571092
100.082642360478
100.082586173271
100.082644866067
100.082630121332
100.082639452519
100.082572664347
100.082541464648
100.082541818481
100.082466514077
100.082450659508
100.08241470127
100.082468242387
100.082488936201
100.080745652312
100.080715809674
100.080783683713
100.080879569487
100.080863812372
100.080818164027
100.080889870901
100.080874703575
100.080883122876
100.080831048187
100.080805709165
100.080802382846
100.080737580368
100.080728556816
100.080707021741
100.080742605411
100.078980377004
100.079046021145
100.078894319472
100.078877626483
100.079052321299
100.079025354914
100.078984543363
100.079074323333
100.079065802305
100.079083002804
100.079049090301
100.079032844809
100.079026932909
100.078970192119
100.078962694531
100.078948133141
100.077162895775
100.077151528172
100.077246550796
100.076927702633
100.076791277224
100.077053240093
100.077111875632
100.077125962432
100.077236957157
100.077241937947
100.077272080239
100.077259747039
100.077255685611
100.077250919076
100.07720501775
100.077189462435
100.075418872484
100.075358209808
100.075273354079
100.075229402565
100.075398465972
100.075286346262
100.075048964664
100.075210228447
100.075275362138
100.075400773205
100.075430889607
100.075480297159
100.07549195232
100.075500870831
100.07549699712
100.075451857006
100.073710463873
100.073645932482
100.073535708419
100.07341228167
100.073150974326
100.073553583406
100.07358782437
100.073184851289
100.073370360614
100.07343695925
100.073579065654
100.073641348889
100.073723125956
100.073764668793
100.073781982563
100.073771051694
100.072073931058
100.071974771418
100.071858795883
100.071667679297
100.071532332422
100.071188502299
100.07106177072
100.071181021948
100.071341702324
100.071486430527
100.071581304204
100.071769528959
100.071883623812
100.072015835114
100.07209391425
100.072112017886
100.070497973051
100.07039217545
100.070218580924
100.070018871422
100.069697364374
100.069493117956
100.069203740015
100.068821155726
100.068871149321
100.069217544104
100.069412222592
100.069656980663
100.069951239016
100.070139573552
100.070353854339
100.070490091496
100.068931089661
100.068915542382
100.06864827651
100.068362556401
100.068008293522
100.067480267858
100.067072690629
100.066741825572
100.066206340582
100.066176529849
100.066645578091
100.067027588289
100.067565601651
100.068029476646
100.068379975377
100.068681329263
100.066784253704
100.067262208271
100.067198372151
100.066607998924
100.066212862856
100.065551045533
100.06469061688
100.063983133429
100.063436495663
100.062383644468
100.062437997848
100.063531441921
100.064109656229
100.064983571153
100.065775093361
100.06641365676
100.063788594557
100.064169686559
100.065114443617
100.064961517343
100.063710309386
100.063294611353
100.06227787138
100.060756427474
100.05923244869
100.058457065661
100.056575344971
100.056728096972
100.058858282793
100.059666012345
100.061374251821
100.062827801535
100.057744458534
100.058939197403
100.058876509948
100.061326314236
100.061053164369
100.058157801305
100.057952631288
100.056717461455
100.054120461399
100.050619768317
100.050016335381
100.047027522832
100.047016334524
100.050444345517
100.051686655098
100.055153304656
100.045789766885
100.049798842188
100.051172962782
100.049568476439
100.054987677321
100.054518197669
100.048315555896
100.04922723684
100.047797424407
100.044060657699
100.03749486302
100.036940395757
100.03271596542
100.032615161707
100.037507430037
100.038795028731
100.061667879571
100.066339986501
100.071897215721
100.080689715782
100.073377072472
100.077207310509
100.076407705567
100.071252631414
100.07733007743
100.068400249117
100.06311415442
100.059554727175
100.047009912786
100.084710874887
100.106115198577
100.106955875814
100.086623054051
100.046183082132
100.046083821864
100.149191713882
100.235104142629
100.172639328554
100.173194222255
100.168393561465
100.158228454509
100.149690500167
100.196349562251
100.235758897141
100.144231750258
100.154070268509
100.21630878268
100.172004193301
100.171256969709
100.160430669604
100.159271888451
100.168041058089
100.166838136204
100.210442830467
100.14869782478
100.13991862514
100.192253367541
100.146857725205
100.155711879597
100.166814372745
100.258030109669
100.2699968613
100.270337621258
100.259018641122
100.269607791251
100.277134442733
100.291184067161
100.328019037419
100.343498028936
100.244059730133
100.281065005219
100.374360370718
100.318182102723
100.308655475239
100.29679505908
100.317418630672
100.262397243456
100.261143610862
100.314847047367
100.292971168246
100.30216920232
100.311654999293
100.337028904398
100.32240307189
100.286585502151
100.273646556669
100.267651477051
100.347067190191
100.38409632037
100.353844354399
100.35421604732
100.385164400159
100.371264541015
100.3486482981
100.442459224285
100.468413173137
100.439253985955
100.459743848034
100.464628713298
100.423109382126
100.375251167143
100.417634393156
100.365949915676
100.456313162911
100.480031022116
100.463607192265
100.475107593986
100.497668617346
100.463549257317
100.407728353035
100.432275479222
100.463180341593
100.414537217236
100.436561512882
100.437705610188
100.398851581927
100.432999627299
100.410965520956
100.34480630271
100.343946809615
100.409587232236
100.430188802915
100.395119852104
100.433499029745
100.430869096894
100.407451919084
100.452397518474
100.424522249357
100.401363511951
100.413980784898
100.372182448531
100.368626638667
100.421236340702
100.458624471445
100.438664294273
100.451843519801
100.47760969508
100.477636130983
100.452241532479
100.425609675415
100.425440904924
100.484957912635
100.506856351369
100.502309245724
100.502297135485
100.502850512643
100.493953500115
100.480388768679
100.510444209826
100.513561024315
100.512684941448
100.507473226698
100.504006759538
100.498976834938
100.489913366984
100.490858128538
100.495003526855
100.503559922256
100.490296217332
100.508051641372
100.505937917309
100.503527356361
100.502766065108
100.50365390673
100.504309559385
100.504319853779
100.504221895012
100.499310219364
100.489065501291
100.49663819045
100.50234373224
100.479903161734
100.480666251911
100.472933865863
100.479809487751
100.458075678287
100.457298810351
100.479002171055
100.47138208908
100.478631451091
100.478034250662
100.499676382342
100.494133045482
100.483289926019
100.459209855818
100.472808343625
100.460933495886
100.463134244426
100.490637524261
100.489847905219
100.494005584861
100.502947484306
100.512944324951
100.512338901223
100.521649209898
100.521913819383
100.51240805814
100.512206986115
100.512168848975
100.517305817131
100.514373380426
100.515727045559
100.515836850328
100.517226119518
100.511759081134
100.512584923321
100.517310382138
100.518668403984
100.519692017154
100.517295603012
100.513064687352
100.512796625251
100.512468658136
100.509519021483
100.504765097821
100.504417391777
100.502785254403
100.503360056487
100.498154768062
100.507666694715
100.506127403654
100.503777963528
100.502895167176
100.50238755764
100.503360150658
100.502305302777
100.499893074372
100.500832505372
100.498791450534
100.497393748863
100.499823044705
100.502458191965
100.502913988082
100.503515665361
100.504497949454
100.503846797533
100.504130810458
100.503177514309
100.506497156707
100.502913301086
100.50327851355
100.50418618525
100.496258934415
100.497909361534
100.493970130063
100.499593660979
100.497700727105
100.485992034098
100.485839156148
100.497860690172
100.499845339582
100.493687265293
100.498813966355
100.497230459059
100.504859105947
100.505340660451
100.504031162647
100.507764315636
100.504832373452
100.505660862939
100.505409413432
100.504692224
100.494928618839
100.498409137189
100.503340856266
100.50450935765
100.507799773554
100.512996000092
100.511960082402
100.517978763734
100.519385189229
100.51867742837
100.518627767587
100.518852434413
100.518451779698
100.51744282602
100.517333160242
100.518615187617
100.519443174421
100.518932415945
100.519295715201
100.519066254455
100.520997417173
100.517226310133
100.517335470226
100.517618467398
100.519026961659
100.518536507504
100.518404730611
100.517857677756
100.515640211242
100.515496657518
100.511431069967
100.506341337815
100.506639268776
100.508101519419
100.511086639877
100.517226806415
100.514117425247
100.51383507175
100.513487453607
100.511462403218
100.507997786401
100.505126012538
100.502312488768
100.500547829553
100.503628713509
100.516752385916
100.538716545065
100.580590609778
100.590644603457
100.523814457442
100.476902908595
100.435968312131
100.389156094256
100.362485035758
100.380508152483
100.378000651081
100.376110726728
100.376628024481
100.377625134111
100.378584125542
100.379757278989
100.381312220525
100.383130344797
100.38495426595
100.386524319636
100.387671638601
100.388282712775
100.387230938717
100.385984447003
100.384542480121
100.382872425412
100.381025668003
100.379143018381
100.377323058628
100.375527291534
100.373716774006
100.371967068198
100.370544353412
100.369925517749
100.370636009375
100.372728921509
100.374354756445
100.374119353874
100.373982448197
100.374553517674
100.374943685797
100.37508565135
100.375238140002
100.375590017462
100.375776056809
100.375843205674
100.375875486778
100.375919689052
100.375954421444
100.376014027715
100.376061773808
100.376109615783
100.376211515984
100.376297070878
100.376384400281
100.376343422866
100.376221918414
100.376115232652
100.376161281906
100.376328249241
100.37605755985
100.375968710895
100.376098590599
100.376036115976
100.375958718401
100.376107563876
100.375982962477
100.37610492068
100.376121842469
100.376067645405
100.375904296968
100.375959394418
100.375918075123
100.375870438629
100.375845325439
100.375785814622
100.375773497105
100.375690090946
100.375639885624
100.375391418964
100.375072645435
100.37543297541
100.375594062908
100.375645606407
100.375713437193
100.375751901679
100.375755169135
100.375821471101
100.375877942433
100.375877167205
100.375915105491
100.375970112774
100.376028374146
100.376023847651
100.37608709104
100.376151192326
100.376153850653
100.376357743034
100.376423370599
100.376446866344
100.376465618258
100.37626700542
100.376056783412
100.376061483987
100.375735897738
100.3750674673
100.374256800603
100.374208892704
100.374654220772
100.374901066871
100.37561794267
100.375464171448
100.374961556865
100.374860835701
100.375270648609
100.375334756396
100.375833787979
100.375879561698
100.375588230606
100.375817218722
100.375833462594
100.375881602583
100.375800616324
100.375761738456
100.375824303416
100.375803508393
100.375778876626
100.375844028103
100.375901053885
100.375938644143
100.375983575946
100.376060673781
100.376097089346
100.376157902484
100.37622879959
100.376281922205
100.376465138288
100.376564220588
100.376550259712
100.376585271078
100.376642139942
100.376740082338
100.376534691359
100.376406765152
100.376174636762
100.376236974124
100.376295863027
100.376351376869
100.37652895277
100.376665708398
100.376696402389
100.376670367199
100.37648467097
100.376093562687
100.37569311546
100.375688506508
100.375973828314
100.376046992075
100.37642349146
100.37628097655
100.376445845241
100.376405647134
100.376264036606
100.376092941273
100.376090715023
100.376148282813
100.376156324823
100.3762273181
100.376301477433
100.376363064008
100.37643300231
100.376634882761
100.376778893866
100.376779197427
100.376740633689
100.376568760877
100.376134350928
100.375723399485
100.37498340207
100.374318020332
100.373879548104
100.37404511891
100.37432472481
100.374358273648
100.374277344213
100.373096942258
100.372337725482
100.371825084317
100.371958937366
100.372306719896
100.372193839187
100.372215257716
100.372744934013
100.373233285695
100.37310908727
100.372971592208
100.372444866217
100.372831574813
100.372425753304
100.374387176012
100.375644237771
100.375716242685
100.37579679971
100.375803821728
100.375893994188
100.375976784843
100.37601576582
100.376078619158
100.376123229588
100.376195106951
100.376229489204
100.376293633907
100.376364194759
100.376420746893
100.376504788628
100.376711268636
100.376844938491
100.376825210798
100.376728363961
100.376495653896
100.376154608124
100.375721716153
100.375075282552
100.374460930505
100.373922802635
100.373105932442
100.372786087026
100.372526397241
100.372284747857
100.372069586173
100.371288277311
100.37110331163
100.370766940558
100.370432946233
100.370206367685
100.370746151124
100.370983028033
100.370501213787
100.370592170111
100.370934430609
100.370900108613
100.371104860625
100.372275555748
100.374190179935
100.375661763921
100.375799095625
100.375930317318
100.375925208684
100.376031585891
100.376121366957
100.376146387392
100.376211336377
100.376269584276
100.376351767891
100.376350381311
100.376421702031
100.376473302517
100.376575231805
100.37678820144
100.376901958526
100.376934147522
100.376687230231
100.376612609344
100.376734890061
100.376790369951
100.376865389828
100.376885087424
100.376716595191
100.376486879639
100.376532043379
100.376639975039
100.376860225358
100.376943855639
100.376980969863
100.376767079855
100.376575522375
100.376073407772
100.375756715387
100.375753713759
100.375160902105
100.374596715046
100.374073953165
100.3733208744
100.373042446659
100.372777909369
100.372652997199
100.372712918327
100.37238408116
100.372033314913
100.371557388743
100.371906465839
100.372369425592
100.372496813621
100.372104292681
100.371582670167
100.371583205787
100.371218782089
100.37144850157
100.371678581155
100.371347430263
100.370629360582
100.370931737315
100.370786316094
100.370147282615
100.370471807497
100.369676628677
100.369082080857
100.368512515771
100.368004829417
100.368567174401
100.369167623002
100.369633672082
100.369286171303
100.369122454814
100.369027357652
100.367794305856
100.367486467061
100.366466501355
100.365722950401
100.362773507569
100.363515982962
100.364798444864
100.366854724138
100.367665260254
100.367721428449
100.365343250244
100.365897910982
100.358204856987
100.357731707013
100.361619885823
100.359897363902
100.359489025773
100.356831612979
100.355362390075
100.353990513784
100.356928734493
100.360265983684
100.361141731765
100.363129075573
100.363977799367
100.365933376868
100.367902931781
100.36932390612
100.368359043303
100.36862680411
100.368766472079
100.372787162174
100.371825214731
100.370302730392
100.369067908988
100.36668434071
100.366839319067
100.368136606466
100.369229097945
100.365064126964
100.36244594437
100.363105423265
100.34948179568
100.353130173344
100.347935449702
100.354200386998
100.353716892476
100.369062970306
100.372577846698
100.374694285499
100.374954607313
100.375343390451
100.375388638918
100.37544710501
100.375493908838
100.375503691653
100.37555795225
100.375624799467
100.375634441756
100.375819667058
100.375854638776
100.375791729133
100.375661897558
100.37567114681
100.375871126728
100.375739591922
100.375832387542
100.375756204174
100.37556758868
100.375584335048
100.37553487171
100.375485029645
100.37546400752
100.375422193834
100.375363569025
100.375295250716
100.375220990865
100.374850360792
100.37448452414
100.375035334003
100.375220344219
100.375275966109
100.375344648637
100.375366135681
100.375422557269
100.375428171931
100.375473888407
100.375519974408
100.375552312169
100.375668754994
100.375682300824
100.375714818839
100.375776626797
100.375694584397
100.375639613691
100.375678155468
100.375793247578
100.375376094506
100.375114629813
100.375476459467
100.375385214612
100.375673646338
100.375574458045
100.375601212857
100.375577419611
100.375433131053
100.375462398503
100.375460777503
100.37544470118
100.375416258624
100.375367965119
100.375389388661
100.375375621102
100.375318270966
100.375261384095
100.375186274627
100.375011414901
100.374610681727
100.375112519825
100.37519075782
100.375265096923
100.375312631718
100.375357946092
100.375370718678
100.375405820794
100.37544024432
100.375412403178
100.375380942129
100.375526583385
100.375524162215
100.37546300892
100.375162721164
100.374562437536
100.375232244099
100.37510671265
100.375589100804
100.375411563221
100.375529968056
100.375513512732
100.375379597191
100.375386058941
100.375366758417
100.375385832736
100.375335380648
100.375334743842
100.37528524138
100.375265034991
100.375199957895
100.375105502208
100.375049059302
100.374640870456
100.374272393044
100.374881852051
100.375085552466
100.375143579056
100.375226546569
100.375274716163
100.375314552976
100.375317167335
100.375350649594
100.375350386555
100.375377450552
100.375369709561
100.375487792676
100.375503438943
100.375344992082
100.375570912205
100.375488273233
100.375367861486
100.375347401936
100.37550603508
100.375506401262
100.37547796977
100.375059732504
100.37559061379
100.375426282829
100.375633062842
100.37552265766
100.375499335797
100.375350139912
100.375377217375
100.375375272145
100.375347482967
100.375319354427
100.375313534542
100.375271528029
100.375243702008
100.375170288226
100.375102474949
100.37489728755
100.374500675578
100.375047303753
100.375137260955
100.375208570456
100.375257444855
100.375296562233
100.375300433719
100.37532889131
100.375340056471
100.375310430732
100.375301330907
100.375269430622
100.375229799266
100.375171655892
100.375079398309
100.375035449425
100.374618150682
100.374403707152
100.374917852676
100.37509556192
100.375140543625
100.375216676177
100.375261131116
100.375303327769
100.375306393651
100.375326056325
100.375372572997
100.375347054503
100.375517219784
100.37555330931
100.375596563641
100.375222076978
100.374721688146
100.375269327767
100.375635119596
100.375528334421
100.375663648679
100.375648170624
100.375533839915
100.375390828705
100.375400469901
100.37536421147
100.375334395347
100.375328230105
100.37527898605
100.375262019422
100.375198066174
100.375148089125
100.374955045719
100.374751824313
100.375149554276
100.375210894833
100.375258609175
100.375290619961
100.375331635211
100.375330304627
100.375352263033
100.375393190809
100.375379661985
100.375599532104
100.375692504677
100.375757655762
100.375445650435
100.375763612395
100.37569962651
100.375704178164
100.375729384603
100.375602248065
100.375437091849
100.375433366925
100.375419848179
100.375364077619
100.375362090243
100.375329155299
100.375309689018
100.375278313827
100.375190121769
100.375219347063
100.37487286601
100.374678455913
100.375198144108
100.37527174701
100.375296225539
100.375346525285
100.375362458475
100.375397013402
100.37537812465
100.375436216731
100.375453821052
100.375453913587
100.375619973232
100.375687284314
100.375726787052
100.375385913665
100.375667747901
100.375516813952
100.375640078119
100.375622692991
100.375591539283
100.375492122125
100.375440426841
100.375480287316
100.375467562775
100.375430356836
100.3754186128
100.375395852974
100.375428094367
100.375396049061
100.375361699318
100.375330174278
100.375268244148
100.375263238943
100.374888485158
100.37475213049
100.375207904137
100.375356937282
100.375368140179
100.375411444725
100.375434100577
100.37543835616
100.375464622092
100.375459684311
100.375500623234
100.375503008566
100.37548859029
100.375596303203
100.375606826192
100.375607726885
100.375127805602
100.375587494653
100.375615445193
100.375602269383
100.375498963934
100.375502505284
100.375628242872
100.37566260785
100.375715673337
100.375327929611
100.375732801208
100.375727369891
100.375786743583
100.375804978121
100.375700327765
100.375557522767
100.375566375079
100.375530074396
100.375498991141
100.375502770037
100.375485093982
100.375478169607
100.375510488588
100.375471732617
100.37548091488
100.375453486272
100.375450226363
100.375289934541
100.375166163971
100.375499168353
100.37550320021
100.375518893064
100.375512541295
100.375545435559
100.375531925232
100.37553304556
100.375542383101
100.375562658977
100.375609610484
100.375797874735
100.375982943543
100.375865936772
100.375883278502
100.375824495443
100.375623368626
100.375639739963
100.37557259923
100.375610073854
100.375582517634
100.375585217637
100.375573935771
100.37557754785
100.375584756625
100.375545928205
100.375618460439
100.37534849424
100.375379154367
100.375633871503
100.375616118313
100.375625323918
100.375637334403
100.375628538313
100.375645030535
100.375648022381
100.375656929948
100.375696976593
100.375672090321
100.375905687612
100.375999470954
100.376023314854
100.375739104879
100.375976828768
100.37595703957
100.375886822899
100.37567699675
100.375758641306
100.375978616563
100.376053114044
100.376132920516
100.375816073296
100.375985445409
100.376005600016
100.375945085955
100.375741838813
100.375761563794
100.375684305872
100.375741471298
100.375710891982
100.375678487077
100.375721337841
100.375707545631
100.375712289555
100.375725160501
100.375691635029
100.375795047446
100.375572788874
100.375655932909
100.375857945312
100.375825092897
100.37580516156
100.375802287447
100.375788258625
100.37580678207
100.375798163185
100.375832759666
100.375829947006
100.37585417986
100.37605028781
100.376098742535
100.376133298385
100.375803467377
100.375978599473
100.37603343787
100.375983764269
100.375823545255
100.37590707696
100.37602775935
100.376063596653
100.376087221365
100.375798216048
100.375277711876
100.375828534586
100.376061035099
100.376060116596
100.376086907787
100.376154634295
100.376079423788
100.375965293435
100.375925793816
100.375889407987
100.375834696936
100.375889768521
100.375847706944
100.375827334389
100.375888807143
100.375882854403
100.375891941915
100.375913308335
100.375883267605
100.375997482172
100.375803369593
100.375896906063
100.37606653141
100.376032581411
100.376007290023
100.375999940462
100.375984439669
100.375973574032
100.375948021853
100.375929180626
100.375942814431
100.375994720066
100.376018227731
100.375989395955
100.376053695118
100.376094932583
100.376054604416
100.376172537659
100.376261726612
100.37613267815
100.376202283309
100.376179423123
100.376288230585
100.376401925967
100.376338472549
100.376395302961
100.37634142988
100.376149606046
100.376131070205
100.376107121817
100.376023189544
100.376066433953
100.3760068291
100.376067567335
100.376077901589
100.376091855314
100.376121613956
100.376119146438
100.376205000215
100.376158758146
100.37624432638
100.375919907289
100.375693506343
100.375571386451
100.375329785805
100.375258129533
100.375043386992
100.375005142385
100.374752755327
100.374577051275
100.37452990546
100.374393363504
100.374444676064
100.37429403377
100.374187065087
100.374262878115
100.374191567124
100.374181590457
100.374260823748
100.374308947859
100.374432244865
100.374563680477
100.374666946289
100.374940438182
100.375345204725
100.375474132434
100.375538712475
100.37559737408
100.375640804937
100.375671438446
100.3757261475
100.375779334289
100.375769888585
100.375897440462
100.375875622169
100.375909329978
100.375965237229
100.375875676604
100.375757180466
100.375675976179
100.375850065811
100.37586956935
100.375933353826
100.375582545513
100.375340012297
100.375665884681
100.375423833297
100.374894144632
100.374245899278
100.374282386713
100.374825908849
100.374872095031
100.375539223424
100.375444076112
100.375003997302
100.374341113192
100.373465080361
100.372296101406
100.373280900683
100.3736535317
100.373773779381
100.374522839933
100.374626632531
100.374485743588
100.374161502159
100.374619856196
100.375175584508
100.375294757632
100.375353069088
100.375300350919
100.375374909091
100.375380666385
100.375396086617
100.375425669664
100.37544679998
100.375481532015
100.375485830463
100.375509932006
100.375569312934
100.375596741647
100.375642556446
100.375608711994
100.375623790262
100.375673930718
100.375718879447
100.37572249679
100.375784089612
100.375835795754
100.375848124014
100.376003842644
100.376055815028
100.376006862315
100.375975130625
100.375763610238
100.375827942782
100.375844701358
100.375919934893
100.375967295244
100.375913323907
100.375958475275
100.376028592861
100.375970495673
100.376036185979
100.376104834347
100.376176584613
100.37625509594
100.376288277992
100.376357317132
100.376386127315
100.376443588709
100.376491683014
100.376552420464
100.376646182468
100.376742729098
100.376945465568
100.376996964278
100.37702546245
100.376811785261
100.376633459382
100.376202378258
100.375720659594
100.375423167658
100.375595632569
100.375086545751
100.374671359276
100.374234936505
100.37351814132
100.373277954379
100.373027348998
100.372910336675
100.372990153395
100.372864200222
100.373182217942
100.372887964428
100.372480629379
100.372064390367
100.371863266856
100.372309309424