/*--------------------------------*- C++ -*----------------------------------*\
| =========                 |                                                 |
| \\      /  F ield         | OpenFOAM: The Open Source CFD Toolbox           |
|  \\    /   O peration     | Version:  v1612+                                |
|   \\  /    A nd           | Web:      www.OpenFOAM.com                      |
|    \\/     M anipulation  |                                                 |
\*---------------------------------------------------------------------------*/
FoamFile
{
    version     2.0;
    format      ascii;
    class       volScalarField;
    location    "0.8";
    object      p;
}
// * * * * * * * * * * * * * * * * * * * * * * * * * * * * * * * * * * * * * //

dimensions      [0 2 -2 0 0 0 0];

internalField   nonuniform List<scalar> 
79506
(
100.123115782197
100.125201212535
100.121433826069
100.125977192923
100.132932553822
100.13317234206
100.131231865159
100.131838825014
100.132228229953
100.132401742487
100.132796437942
100.132418229886
100.134098353374
100.133537454125
100.13566577438
100.135691451235
100.133629775154
100.130749770689
100.127538251708
100.127157221674
100.127258873843
100.129020623982
100.126607439622
100.127803035883
100.129744873619
100.134580013204
100.129182084374
100.128169765452
100.127414301004
100.127059849942
100.12715307804
100.127217806729
100.128046280571
100.129005114911
100.134490174702
100.129504821983
100.127520927819
100.126263982031
100.128644825207
100.126851885014
100.126788740074
100.12717664496
100.130400872797
100.133322822278
100.135274486687
100.135148930453
100.128501136111
100.127308403484
100.12392066841
100.124428347099
100.124956905848
100.124797114482
100.124889525617
100.124897236293
100.122655427227
100.125883362641
100.129574776968
100.12809151862
100.124707180822
100.123764797348
100.122739865686
100.123585897832
100.123669298242
100.123006727592
100.123887166859
100.12489451987
100.128397614505
100.129870890004
100.126149655511
100.122935356655
100.125233791098
100.125256165614
100.125105690708
100.125229248006
100.124597617402
100.124094116181
100.127620429862
100.128869585348
100.126455506001
100.129773055916
100.132948530873
100.134745784853
100.132759799364
100.132199399838
100.1332691783
100.13141759276
100.12893580809
100.124745216492
100.130196985513
100.118612507705
100.107397302285
100.113577033528
100.115192106158
100.124452627609
100.118609331363
100.1197557398
100.12247756367
100.121795553584
100.121297993906
100.12132579838
100.12129308586
100.125873013522
100.126676231983
100.122143939008
100.122505792942
100.119972998911
100.118787533751
100.119682092695
100.119694220672
100.118819210311
100.120083730184
100.122718406355
100.122423461266
100.12695928876
100.126169317915
100.121577689863
100.121684729811
100.121671792615
100.122114125547
100.122774486512
100.119946329769
100.118728943319
100.124900607274
100.125378482839
100.121932482571
100.125780443167
100.132300756397
100.137516997973
100.130963223371
100.130429284862
100.134978878314
100.150443319925
100.11932952106
100.119840184884
100.104810041993
100.078158230959
100.079014029183
100.074703475377
100.075411762296
100.081606175804
100.111835625489
100.122100497789
100.119204181422
100.118964475462
100.123113979352
100.129329509093
100.112609195829
100.113167310458
100.114585863875
100.123925835341
100.118979096668
100.119003240029
100.124044419593
100.114593521438
100.113299367462
100.112800041273
100.111387699305
100.112114065256
100.115643094092
100.113453420164
100.073536389254
100.075591383538
100.076886975526
100.076637566316
100.075562467589
100.07561394965
100.077513510557
100.077941889963
100.082053529389
100.111187698959
100.10633478843
100.090018841596
100.084239784261
100.084167765972
100.081482439044
100.082278636587
100.07677952508
100.076886014506
100.079029700666
100.082761794992
100.082670987754
100.078863341195
100.076726220166
100.082081281475
100.081297712609
100.074926608247
100.0755342325
100.082054563623
100.08251156693
100.081651217948
100.081346210195
100.082219042536
100.082087034113
100.081354569774
100.082586948618
100.082671610435
100.083161217777
100.08327918263
100.082581442623
100.077785259507
100.078591174763
100.078560602655
100.077746270008
100.076742604874
100.077692462149
100.077240552624
100.081169525682
100.082448749991
100.083079301651
100.083366141836
100.082672521319
100.082618539268
100.08333473725
100.083248353649
100.081113923653
100.080910156575
100.081000210391
100.081086412558
100.081158974894
100.081013148804
100.082840294796
100.081927302046
100.081917033913
100.082508730361
100.082060729044
100.081261125653
100.082476338691
100.080794931335
100.080702839592
100.080861210213
100.080962284552
100.080774809979
100.080824846288
100.081129799252
100.078696519658
100.078710494775
100.078657644555
100.078732922148
100.078715934856
100.078762394872
100.078691982264
100.078653264078
100.08096984623
100.082803753949
100.083133209255
100.082974919875
100.080905846725
100.078529854307
100.078514010646
100.078412171859
100.078458311473
100.078501174498
100.078480131983
100.078547380555
100.076658552391
100.076777750227
100.076795226147
100.076742262809
100.076802985797
100.076786497098
100.076807762724
100.076736454583
100.076700075653
100.076699608163
100.07865507863
100.081030371142
100.08143748649
100.078834812537
100.076828390213
100.076602783742
100.076580988985
100.076518158892
100.076581606255
100.076620660246
100.076591130556
100.074885356817
100.074958998953
100.07506289854
100.075071996376
100.075017004585
100.075075898313
100.075060209384
100.075067457329
100.074997797484
100.074963300904
100.0749613622
100.074883459307
100.074866331242
100.074830224999
100.074884718847
100.074907606784
100.073161262253
100.073135924336
100.073209251612
100.073310298047
100.073297414665
100.073253990803
100.073325904943
100.073309297913
100.073313964626
100.073257469335
100.073226606547
100.073219178213
100.073150213028
100.073139063129
100.073117305392
100.073154308396
100.071384156437
100.071455527721
100.071312404828
100.071304601332
100.071488345779
100.071466664791
100.071429734917
100.071519365319
100.07150817715
100.071519703788
100.071478024512
100.071452488525
100.071438526179
100.071375367325
100.071363972689
100.071349198953
100.069547629615
100.069540655627
100.069645651424
100.069340839974
100.069222328074
100.069498068527
100.069566629913
100.069587889307
100.069699559373
100.069698150535
100.06971877057
100.069692695798
100.069672727218
100.069653759883
100.069596929829
100.069574381842
100.067774863953
100.067713550503
100.067638355199
100.067611302376
100.067805098981
100.0677224965
100.067509416091
100.067688857253
100.067764225703
100.067891014482
100.06791236899
100.067944878018
100.067932503601
100.067913038986
100.067884086056
100.067819411476
100.066035690636
100.065951983262
100.065840627827
100.065734736697
100.065504593275
100.06595125498
100.066031246057
100.065669341726
100.065887883895
100.06597315301
100.066117877801
100.066167175728
100.066218824492
100.066218166443
100.06618649087
100.066129850727
100.064384218692
100.064226829067
100.064078669212
100.063885732059
100.063781986503
100.063492210526
100.063436172384
100.06364004366
100.063874091226
100.064070724753
100.06419919084
100.064393027899
100.064485330486
100.064565238756
100.064571811974
100.064504680905
100.062872034392
100.062616790206
100.06234346102
100.062091019392
100.061765398271
100.061616298204
100.061421838246
100.061161224942
100.06135842073
100.061827796148
100.062105104722
100.06241417773
100.06271750376
100.062873982392
100.06299998031
100.063009453507
100.061521332908
100.061254246505
100.060727455586
100.060280445163
100.059826318106
100.059294147552
100.058995850861
100.058814492311
100.058495177247
100.058717877675
100.059373075652
100.059899346073
100.060553124381
100.061037880907
100.061317957234
100.061498786555
100.059908878482
100.059965408281
100.059445016781
100.058488126308
100.057783762392
100.05694592504
100.056089443716
100.055570248526
100.055270456799
100.054602168583
100.05505314817
100.056466289741
100.05727604993
100.058356852372
100.059191695686
100.059714185979
100.057682808453
100.057780022639
100.058075455716
100.057071950189
100.055238094463
100.054247033141
100.05296714027
100.051506399531
100.050286665555
100.049902022968
100.048687973556
100.049485813484
100.05212990398
100.053347101697
100.055361486033
100.056894055666
100.052829811698
100.054030535168
100.053415249772
100.054713758671
100.052997749866
100.048966597633
100.047664138342
100.046052099683
100.043598401015
100.040776677751
100.040797947774
100.038972848365
100.039974245839
100.044312034653
100.046277600323
100.050072145878
100.042255178687
100.046645592544
100.048160550453
100.045691851505
100.0491681547
100.046336149489
100.037590657827
100.036854455066
100.035072465938
100.031619436115
100.026028146545
100.026648011346
100.024319096094
100.025901659839
100.032388163574
100.034699048933
100.059469570644
100.064996810345
100.070938116041
100.080506370701
100.071755498027
100.072686751862
100.067528860456
100.058995102039
100.061932825314
100.052635743171
100.047391692466
100.046105857756
100.035347363211
100.074298237342
100.097564932252
100.100296963039
100.08190605804
100.039895759509
100.037117063771
100.140551353608
100.226452356617
100.163725120473
100.167147806191
100.164501298295
100.155699345471
100.149653590217
100.198046257967
100.238637930749
100.14605099228
100.157441800777
100.221289947656
100.175207550631
100.172226611037
100.157670470943
100.150113764854
100.153650599529
100.147751339373
100.188488470707
100.128087487264
100.120926062223
100.17393748647
100.131337953089
100.143006735033
100.15573819664
100.246863240155
100.260982058957
100.264205147087
100.255403559787
100.268399351227
100.277960910793
100.293750978107
100.331066325407
100.345885309984
100.247790408389
100.283453268795
100.376496516249
100.32404647986
100.314898884633
100.299857197655
100.318958311234
100.261965966509
100.252081800503
100.301806718006
100.275805701257
100.280719345117
100.286995971037
100.30964083537
100.299128651107
100.266798158677
100.257319612007
100.254064164446
100.33470329394
100.373810043537
100.344780274021
100.347542880793
100.381066664332
100.372034685386
100.347013573331
100.437549166155
100.463335717307
100.434158007948
100.458197008336
100.464963120812
100.423517608557
100.376543401895
100.419670734133
100.367974598867
100.456673826478
100.480122582908
100.464219981122
100.474414555112
100.494483791508
100.464851810497
100.411604555604
100.432876927032
100.468255015335
100.421330161995
100.440536235939
100.443136503223
100.403621904204
100.436278725188
100.413123040422
100.344746592277
100.337029326487
100.402360152658
100.416440480815
100.377939243052
100.412316319103
100.409609670144
100.381786000547
100.423191825262
100.393155594979
100.376223660737
100.393387159741
100.355866232024
100.353003059447
100.409056101464
100.449382802236
100.42922511024
100.44237552723
100.467803464337
100.466492326856
100.445438976931
100.417651059357
100.416708158327
100.476502352092
100.497371369682
100.49182542658
100.48984126603
100.490640359695
100.487190311192
100.473086610174
100.500558318753
100.502285599572
100.498353014418
100.498885361974
100.4974852047
100.493374647976
100.485557476283
100.488488116322
100.492435177076
100.501407897208
100.490266072368
100.504619092543
100.502240026417
100.500713102119
100.49947953948
100.500151317018
100.500666079212
100.499925487643
100.498806281821
100.495147246974
100.485260173955
100.490443161534
100.498148780217
100.478799463006
100.479926271218
100.474258229372
100.477443763838
100.457647805778
100.449490729144
100.469416025331
100.46105765786
100.463220012958
100.463215905989
100.478405839851
100.478100783644
100.455486764549
100.439551177048
100.458057987795
100.443980068347
100.452894969201
100.483129409945
100.482704035369
100.486350333431
100.493342485679
100.503455585008
100.503759058288
100.511360912964
100.507383256469
100.501796648539
100.496698422221
100.500788021206
100.509435771169
100.51033254333
100.510926989434
100.51217106011
100.508627158954
100.505074450643
100.503364843855
100.508169867224
100.508712297788
100.509154545116
100.506772039579
100.503802632053
100.504197806284
100.502562662494
100.501997141796
100.500559578525
100.500112067969
100.497310494488
100.500534375489
100.496765173204
100.502956245133
100.501308613674
100.500601061068
100.500345546704
100.500145208806
100.500408413175
100.499811631098
100.498977322082
100.499686307953
100.499020415101
100.496630480921
100.498293046196
100.499419346537
100.498597078759
100.498882938789
100.499534830726
100.49895882957
100.497335945805
100.496523095647
100.498112218721
100.496020859983
100.494921241714
100.498633523573
100.491102165683
100.490973796796
100.491184975158
100.493771380852
100.491580582
100.481015750111
100.479263649787
100.49112290756
100.492925877036
100.484672047096
100.494492892067
100.49352055399
100.493765948456
100.504005058884
100.497488351486
100.505830399025
100.506870080058
100.504467845386
100.500521267593
100.497241407731
100.488112202149
100.493805179025
100.499251147278
100.499365701333
100.5026199271
100.508510400119
100.508261621432
100.513577132825
100.512566643383
100.511537372967
100.511538832322
100.510943804696
100.509627895908
100.509608099435
100.511150881564
100.510961522968
100.512327366309
100.51174221824
100.511408450567
100.510615851818
100.508575345708
100.50492707545
100.506423991318
100.508604349158
100.511268133682
100.511563060336
100.512328958247
100.508318667608
100.505070592851
100.503975139612
100.501903397396
100.501107668381
100.501254512626
100.501602252291
100.503471814962
100.50443967142
100.503316442741
100.502472980643
100.501136387619
100.499916879799
100.498768987531
100.498012640581
100.49747018691
100.497126335255
100.497566517341
100.502470733641
100.510534725834
100.540515759824
100.553494749552
100.498227686812
100.458916820196
100.423505369065
100.382305731701
100.358648180359
100.374689138139
100.37214496991
100.370563717368
100.370992881687
100.371818716866
100.372604685097
100.373569196626
100.374828773221
100.376267859884
100.377706705454
100.378995731318
100.379990397878
100.380602219345
100.379123245349
100.377640950106
100.376206523537
100.374822746892
100.37351065661
100.372324944896
100.371297410042
100.370435236669
100.369696513557
100.36905388191
100.368469728216
100.367916652768
100.367403299535
100.36697916096
100.366759962803
100.366860301872
100.367369652141
100.368331231096
100.369621735751
100.370954335925
100.371952648858
100.372336095097
100.372337994558
100.372465218526
100.372474611678
100.372496118538
100.372525266908
100.372559183928
100.372541287769
100.372578328228
100.372551420322
100.372582579581
100.372672981278
100.37267880799
100.372650486896
100.372557844985
100.372504974806
100.372630312252
100.372399045887
100.37239180047
100.372474405053
100.37241798427
100.372352428293
100.372511291082
100.372375983534
100.372463296023
100.372498978934
100.37253447416
100.372427166375
100.372472859987
100.372458646714
100.372438866665
100.372408466632
100.372371516682
100.3723767539
100.372251806453
100.372145853801
100.37204195342
100.371896136724
100.372069244201
100.372163213326
100.37221633695
100.372324987616
100.372312822653
100.372337017146
100.372395287326
100.372446553221
100.372468009219
100.372516039835
100.372560198318
100.372607455463
100.372587926791
100.372612292541
100.372631301304
100.372556973798
100.372728517403
100.372720292801
100.372747493966
100.37274599443
100.3726652048
100.372584791284
100.372532792471
100.372395510284
100.372026658073
100.371619424094
100.371464108835
100.371653225247
100.371787683712
100.372218994123
100.372019961128
100.371788348916
100.371646907824
100.371911756676
100.371876502516
100.372244454276
100.372267043519
100.372183025261
100.372333849121
100.372370122284
100.372494346864
100.372380851506
100.372410979906
100.372473806916
100.372384123897
100.372361695266
100.372423613046
100.372478717095
100.372545196251
100.372557745811
100.372628605147
100.372653785798
100.372668961564
100.372704140552
100.372695426492
100.372812252498
100.372835185554
100.372850420356
100.372895009578
100.372911361661
100.373007361916
100.372746637754
100.372740088798
100.372589951173
100.372614919716
100.372770715257
100.372755432235
100.372876296747
100.372948767676
100.373039819075
100.373051304208
100.373031315217
100.372867765094
100.372697328131
100.372586721165
100.372670459205
100.372697311022
100.372862411888
100.372793468552
100.37278895901
100.372687734513
100.372554606741
100.372488961639
100.372649512291
100.372681053713
100.372701798344
100.372726837301
100.372789472184
100.372831432752
100.372837333158
100.37300112736
100.373096249802
100.373179906149
100.373199280159
100.373191782922
100.372983830103
100.372790637444
100.372404303527
100.371953759386
100.371579798334
100.37173465018
100.371892200628
100.371842463949
100.371682486404
100.371001476963
100.370388590268
100.369918525627
100.370090917372
100.370373996454
100.370212449024
100.370089139788
100.370375478097
100.370650984995
100.37080570246
100.370872172143
100.370639649505
100.370907914988
100.370655800338
100.371301121913
100.372443505201
100.372570527714
100.372417757081
100.372452876316
100.372528922605
100.372591666136
100.372615079307
100.372672529681
100.372678654771
100.372735019438
100.372768502553
100.372821023036
100.372829207026
100.372883002534
100.372925076125
100.373106365235
100.373208613232
100.37328067913
100.373279036969
100.373235272332
100.373094498476
100.3728857338
100.372534093622
100.372104268904
100.371631170326
100.370943102799
100.370578082595
100.370419153076
100.370222760014
100.370092898347
100.369343701483
100.369028775379
100.368838600528
100.368645850674
100.368562501294
100.36898646639
100.369171510343
100.368773467162
100.369062161008
100.369516174647
100.369564637953
100.369733664986
100.370789152862
100.371432160209
100.372435153058
100.372683937951
100.372586444318
100.372592906175
100.372648520666
100.37270009341
100.372717271926
100.372768202702
100.372793810842
100.372843049297
100.37285540239
100.372851478946
100.372923917356
100.373018129894
100.373204625336
100.373319528492
100.373439748369
100.373379106032
100.373433937506
100.373422908423
100.37353960605
100.373398701269
100.37326408644
100.373044512609
100.372831730899
100.372906320551
100.373141020335
100.373311500359
100.373438582712
100.373588642601
100.373568622281
100.373511827502
100.373284580958
100.373068803553
100.372997635158
100.37265936984
100.372244679801
100.371757738676
100.37106902121
100.370732760052
100.370332295169
100.370057584612
100.369964444766
100.369723242129
100.369456135956
100.369203603502
100.369505842906
100.369858566891
100.370152219591
100.369890871155
100.369507130648
100.369326843083
100.368856346409
100.368792542417
100.368914742328
100.368668897464
100.368168999252
100.368421735489
100.368583460591
100.36811934394
100.368169105969
100.36761498927
100.367165646955
100.366776603265
100.3665490187
100.367006269759
100.367447317963
100.367804073561
100.367435240743
100.367591757492
100.367774617296
100.367584814244
100.368217898294
100.36650863443
100.364903239775
100.363825120396
100.364033304577
100.364780897628
100.365749072837
100.3676246964
100.365538900311
100.36443649604
100.363359469024
100.359812597842
100.356741369693
100.361563213467
100.360689023914
100.360566089324
100.357971868682
100.358929539089
100.356704400378
100.358966745133
100.360564654857
100.361105874206
100.362458083825
100.363760069361
100.365067422986
100.366309440412
100.367178211606
100.366641766713
100.368419595036
100.36608210167
100.372560095192
100.371456711771
100.370016853818
100.368186893593
100.366354855339
100.36538519922
100.367740124483
100.36910207209
100.364430950039
100.361654482851
100.360452289124
100.349855334231
100.353729225658
100.351241629928
100.354912572957
100.356900205126
100.367548265679
100.369529154797
100.371453551707
100.371731076522
100.371957743138
100.372015021063
100.372057540329
100.372083722341
100.372096824574
100.372158243817
100.372219129733
100.372185160024
100.37236746426
100.372368600928
100.372268863366
100.372192995096
100.372193302883
100.372308795139
100.372191891942
100.372329589794
100.372289223265
100.372115156954
100.372168276056
100.372145527412
100.372101018509
100.372071449362
100.372052914043
100.371996531315
100.371884831752
100.371917525542
100.371324494367
100.37034426862
100.37158202767
100.371953371644
100.371916315064
100.372000916586
100.372011920446
100.372030683366
100.372036110386
100.37207698321
100.372108257502
100.372086559888
100.372170228362
100.372109011867
100.372181862519
100.372253949034
100.372234963895
100.372180149597
100.372121681779
100.372147859195
100.371711229703
100.371529260628
100.371831296706
100.371699205195
100.372034949366
100.371908750773
100.372037118236
100.372107291016
100.372042753377
100.372070678431
100.372086534411
100.37210796006
100.372079394061
100.371999410087
100.372024411165
100.371998014798
100.37199357932
100.371903270701
100.371916052891
100.371610526836
100.370569243559
100.371816259044
100.37192632456
100.371941104414
100.372008614708
100.372008113613
100.37204514352
100.372085619535
100.372070182306
100.37207141746
100.372047498536
100.37211090373
100.371999069714
100.371792211321
100.371407158093
100.37085378517
100.371544467878
100.371446189232
100.372013856549
100.371777215784
100.372040234868
100.372116756759
100.372077700547
100.372076061313
100.372124481262
100.372078866574
100.372010363456
100.371993999096
100.371997023101
100.371951010969
100.37191816391
100.371863962193
100.371695835652
100.370350992993
100.368873909196
100.370891079301
100.371842760608
100.371880114501
100.37193519658
100.37199527962
100.371997857143
100.372015342514
100.372091082592
100.372139779409
100.372108533887
100.372087894657
100.372109991814
100.372027312541
100.371808602399
100.372143784371
100.372149935682
100.372130931157
100.372136626635
100.37214771581
100.372027615142
100.371884976451
100.37135200557
100.372038223445
100.371992621504
100.372272404412
100.372168423127
100.372236687594
100.372211831495
100.372181531343
100.372089513587
100.372160248002
100.372032019938
100.372023898922
100.371990991968
100.371950942745
100.371881930343
100.371889130358
100.371099947051
100.369519835126
100.371615394377
100.371959575498
100.371935785319
100.371988565785
100.372055920431
100.371977779331
100.372174559614
100.372220299397
100.372037855657
100.37203300646
100.372000636357
100.371937506556
100.371880933625
100.371835480256
100.371379012866
100.369732509452
100.368755910198
100.370752276773
100.371747971934
100.371892315775
100.371946183167
100.3719999647
100.372075305446
100.372008154738
100.372223270441
100.37214359503
100.372274345214
100.3723534311
100.372332579111
100.372248742961
100.371715435724
100.371261075008
100.371850799529
100.372337396366
100.372325184129
100.372511169098
100.372435966054
100.372430565958
100.372363887203
100.372281362051
100.372316172553
100.37208428492
100.372082822992
100.372021479385
100.37197457321
100.371929500424
100.371905289116
100.37112125331
100.369885923436
100.371810050015
100.372037756034
100.372022887786
100.372037546574
100.372143472433
100.372027973685
100.372318877558
100.372216188346
100.372384388874
100.372528404768
100.372564103459
100.372418057075
100.371990466809
100.372463901544
100.372509095924
100.3725972584
100.372611613247
100.3725747698
100.37247294793
100.372335962634
100.372374503075
100.372123454255
100.372121602743
100.372079928871
100.372045174628
100.372010671546
100.372007456719
100.371817596503
100.370353429399
100.369630622491
100.371635655298
100.372123781079
100.372065081387
100.372085519805
100.372127242335
100.372152144936
100.372108759193
100.372340657
100.372248576031
100.372420674192
100.372530679537
100.372567463679
100.372442232237
100.37191014589
100.372311627853
100.372339414053
100.37243106767
100.372494618251
100.372542299293
100.372311294272
100.372415321508
100.37241458378
100.372328455207
100.372215976828
100.372139492762
100.372125182186
100.372177614939
100.372137490173
100.372126877108
100.372116720045
100.372072663754
100.371654666496
100.370212122939
100.369901896053
100.371611421336
100.37213949038
100.372154920938
100.372172048522
100.372170555192
100.372170081157
100.37219866844
100.37218136844
100.372349331307
100.372274837831
100.372379056755
100.372410501697
100.372372340737
100.372199308847
100.371684064588
100.37208304771
100.372301334356
100.37235417626
100.372319875684
100.372321351917
100.372335168519
100.372272826869
100.372113307638
100.37161328732
100.372047608374
100.372059233527
100.37217326549
100.372284413832
100.372331923088
100.372205158996
100.37229190652
100.372229376762
100.37226589502
100.372319990288
100.372176829724
100.372184059813
100.372233894453
100.372202711195
100.37220899246
100.372197624638
100.372226190689
100.3719199398
100.37166854625
100.37224692424
100.372223323375
100.372236409722
100.372220432176
100.372233180319
100.372216696116
100.37222094571
100.372269612654
100.372277186732
100.372249975791
100.372286978943
100.372252299143
100.371965780727
100.372134812937
100.372240318032
100.372206101902
100.372233782363
100.372257093705
100.372285762275
100.372195572332
100.372224831692
100.37222301685
100.372230176761
100.372261705979
100.372184296935
100.372376270305
100.37177979806
100.372082527818
100.372306948746
100.372264654001
100.372245508638
100.372245332708
100.37223636741
100.372232694387
100.372207360357
100.37226987682
100.372209593601
100.372238627643
100.372281373309
100.372207274103
100.372049289449
100.371633489206
100.371981156344
100.372145581996
100.372222229995
100.37218007637
100.372235088536
100.372270051826
100.372208213326
100.372161289021
100.371739741681
100.372038427377
100.372190691661
100.372245361118
100.372190563189
100.37222079976
100.372245209571
100.372269609235
100.372213473159
100.372239951462
100.372237136984
100.372256169103
100.37223970365
100.372298813863
100.372189116631
100.372410366921
100.371870154929
100.372535322663
100.372329915367
100.372359911391
100.37229723187
100.372302769256
100.372294040049
100.372272591785
100.372268776995
100.372307921602
100.372250316383
100.37226328882
100.372354009653
100.372311269734
100.372284353182
100.37193246137
100.372185364966
100.37228714994
100.372288409902
100.372232241132
100.372275901879
100.37232875871
100.372369207783
100.372449226546
100.372248396134
100.371958631157
100.372361516124
100.372501543795
100.372519696077
100.372490717911
100.372547286565
100.372442962882
100.372331358768
100.372304185449
100.372307022488
100.372293213501
100.372305585163
100.372271749955
100.372279393187
100.372320816841
100.372389513796
100.372338096125
100.372397407048
100.372302779047
100.372485973449
100.371992786174
100.372610149076
100.37244604134
100.372584346236
100.372500121847
100.372479816331
100.372486775927
100.372410084154
100.372376958291
100.372369278874
100.372368579892
100.372345217707
100.372403556998
100.372442966892
100.372534994734
100.372498723735
100.372478486476
100.372634856592
100.372793332156
100.372733171265
100.372747636525
100.372670737675
100.372841083325
100.373054419906
100.37307315505
100.373109553029
100.372936190926
100.372653888862
100.372570310606
100.372623383823
100.372510830372
100.372550811975
100.37242832978
100.372507543796
100.372588774885
100.372547505758
100.372640110865
100.372616242791
100.37278269127
100.372611137969
100.372817599595
100.372947734916
100.372053003328
100.372367494946
100.371027901621
100.371554433423
100.369981485609
100.37076045644
100.369084501658
100.368050349137
100.3685906454
100.367809307909
100.368516232913
100.367785053402
100.367385827207
100.368091757473
100.367720796076
100.367543578241
100.368570677746
100.368513150215
100.368655851685
100.370292456485
100.370457194297
100.371707566362
100.371975987292
100.372070949013
100.372112379385
100.372193823928
100.372196315612
100.372262699945
100.372295670975
100.372345903178
100.372296755448
100.37240760322
100.372322185069
100.372369662956
100.372431121463
100.372409663778
100.372322070289
100.372227644515
100.372394821932
100.372367640381
100.37238755476
100.372067020399
100.371944796439
100.372149981949
100.371996359799
100.371604298314
100.37115094949
100.371183092541
100.371462147592
100.371538847274
100.372081889611
100.37192341227
100.371596603479
100.371058893462
100.37042371583
100.369654603754
100.37016844035
100.370386537805
100.370212776147
100.370863903715
100.370902376993
100.371002258923
100.370667674226
100.370991233017
100.371490440153
100.371655102413
100.371949349235
100.371951801153
100.372094630277
100.372086840876
100.371987317384
100.371993502101
100.372016270396
100.372024335607
100.372072148785
100.372095686922
100.372120630599
100.372177376506
100.372197974196
100.372223197919
100.372232975257
100.37227513475
100.372344794841
100.37231069724
100.372354686992
100.372398898935
100.372380640789
100.372496135373
100.372476953505
100.372437458366
100.372507302975
100.372342327014
100.372394130752
100.372403163539
100.372445707363
100.37245058367
100.372427459652
100.372621787569
100.372649680367
100.37253490301
100.372588103823
100.372641030283
100.372695527198
100.372741823774
100.372812031924
100.372867686429
100.372888539169
100.372918081618
100.372978740438
100.373014678153
100.373149507725
100.373304868572
100.373442655708
100.373588760801
100.373723826541
100.373706801836
100.373649308766
100.373453278724
100.373144379405
100.372925046969
100.3730225399
100.372655274713
100.372319895966
100.37186455244
100.371170160505
100.370864164704
100.370477517313
100.370223074843
100.370148330436
100.369929795146
100.370203914377
100.369957190576
100.369601390381
100.369248263952
100.369061007597
100.369589483406
100.369082099332