/*--------------------------------*- C++ -*----------------------------------*\
| =========                 |                                                 |
| \\      /  F ield         | OpenFOAM: The Open Source CFD Toolbox           |
|  \\    /   O peration     | Version:  v1612+                                |
|   \\  /    A nd           | Web:      www.OpenFOAM.com                      |
|    \\/     M anipulation  |                                                 |
\*---------------------------------------------------------------------------*/
FoamFile
{
    version     2.0;
    format      ascii;
    class       volScalarField;
    location    "0.4";
    object      p;
}
// * * * * * * * * * * * * * * * * * * * * * * * * * * * * * * * * * * * * * //

dimensions      [0 2 -2 0 0 0 0];

internalField   nonuniform List<scalar> 
74874
(
100.128523853193
100.130908036768
100.13138140748
100.129971196066
100.13548639285
100.136072783321
100.132914921761
100.134523253094
100.137040276729
100.13711392845
100.135001460723
100.133465361896
100.136749044037
100.136199027252
100.137210402829
100.137393808876
100.136775180366
100.133636469732
100.130727463812
100.130157883306
100.13163229836
100.132949445688
100.131430904058
100.131081252033
100.136522489514
100.136658407657
100.132057718803
100.13232334181
100.133486088099
100.131664772161
100.131802279197
100.133300454407
100.132305244942
100.132005078166
100.136591293145
100.136093475814
100.130991411507
100.131407593943
100.132849613867
100.131270329842
100.129839273304
100.130364727762
100.133271250324
100.136417619247
100.136865155557
100.136623027824
100.130479975084
100.129739614722
100.129345562217
100.128779439522
100.127766680287
100.127771990214
100.127057049416
100.127404710405
100.127671685206
100.128228472157
100.129429222735
100.128917701201
100.127310089877
100.127022769902
100.126755711042
100.126302610242
100.126346965744
100.126884850874
100.127045844603
100.127381528669
100.128934516268
100.129468241709
100.128344034555
100.127827169672
100.127695137872
100.127357540717
100.128019256956
100.128029213883
100.129017511389
100.129634263233
100.13011144109
100.130889842075
100.130434012388
100.132004337549
100.13161281413
100.132755388415
100.13301475908
100.13279962592
100.132232484345
100.131751252665
100.131254457085
100.12809832779
100.126423303799
100.128454232939
100.127415618322
100.123723644181
100.124672591022
100.127284548293
100.126982140417
100.125238688228
100.123480336726
100.125062663971
100.126625371361
100.125975902076
100.125299869499
100.124883839799
100.123063738187
100.1219989647
100.123195665535
100.123140099497
100.121878547649
100.123016804865
100.124996655577
100.125479509272
100.125825973999
100.1268342021
100.125607162066
100.123960488756
100.12560331276
100.127242312286
100.127519104262
100.124848631212
100.123941120565
100.127824742574
100.128878579485
100.126939183948
100.128918341395
100.132480200154
100.132703726699
100.130292465513
100.130056367652
100.123637228179
100.131787688149
100.131381033733
100.125950535164
100.123476393476
100.128114286517
100.128486887547
100.122816047101
100.123049915114
100.125949282233
100.124355949077
100.123183389093
100.121187810883
100.12407458778
100.12665041015
100.122889805375
100.122332931055
100.124571791505
100.12094681311
100.118599000311
100.12078346958
100.120748639606
100.118537146794
100.120919210812
100.124683011371
100.122705273509
100.123553498297
100.127615432568
100.125058099913
100.121766131271
100.123599408261
100.124660107857
100.126234780752
100.123259608157
100.122978724121
100.12906213521
100.128584883803
100.1241770911
100.12720735668
100.133998628966
100.134876894673
100.12457266033
100.151708196993
100.149666198993
100.122246811712
100.122109956143
100.127437424106
100.116978475199
100.118512000584
100.129564495923
100.12593782584
100.123085418184
100.12301556778
100.127921558425
100.117495159213
100.118640265738
100.118898210481
100.118650441988
100.125474077837
100.121738364582
100.121702677201
100.125336517336
100.118779013791
100.119047351839
100.118816071677
100.117407905183
100.115858703594
100.118799897404
100.116556652615
100.107917996346
100.110520894332
100.082294919672
100.078406760292
100.078770234766
100.084539889376
100.115766337871
100.110083806187
100.093040179634
100.086050399619
100.079729682447
100.080484006105
100.085460403875
100.082442968844
100.083408712051
100.086705706884
100.086693066723
100.083360176065
100.082426425953
100.085096318011
100.084276870011
100.078072085876
100.076801550567
100.081330291362
100.07937286393
100.079203976724
100.078203730272
100.078229158759
100.084454297586
100.083659638611
100.083975106558
100.084360681152
100.079626577569
100.08019957532
100.081547503262
100.081522990849
100.080181343627
100.079416435663
100.080407536006
100.079633126216
100.078151946931
100.078184714754
100.084980205224
100.084042549758
100.08370467203
100.084472504325
100.085750896239
100.085694226925
100.085075361673
100.085254100008
100.085507905116
100.085540657053
100.084633673725
100.084351528068
100.084342648931
100.084524326885
100.084164769626
100.083935148502
100.08359284311
100.084516895026
100.085627142306
100.085937029152
100.085192703241
100.085087809224
100.083362370327
100.08365070218
100.083631534001
100.083425920608
100.083579698233
100.083579068705
100.083608276473
100.083471800674
100.085189360201
100.085162917539
100.085406029116
100.085327684104
100.085162567292
100.085001845061
100.083297120436
100.083482615071
100.083623527928
100.083338696503
100.081016622044
100.081068299701
100.081181062234
100.081209134236
100.081123877839
100.081240899133
100.081191164306
100.081240832517
100.081192439951
100.081178128464
100.083451678438
100.08352459429
100.083454591519
100.083458179755
100.081133445523
100.080982761024
100.081063778003
100.081078653913
100.079078720792
100.079067106999
100.079119209986
100.079178342262
100.079237476865
100.079162430946
100.079249225885
100.079217670044
100.079266244738
100.079231212185
100.07921943875
100.079240680003
100.081202432952
100.081107312028
100.079152298838
100.079169666383
100.079058389576
100.079130026694
100.077394955085
100.077353793177
100.077302105786
100.077333757332
100.077376892407
100.077455092775
100.077398400268
100.077478979988
100.077457608914
100.077505675297
100.077486847961
100.077482418672
100.077492494976
100.077407798197
100.077422730451
100.077343988566
100.075541675984
100.075543968262
100.075501622585
100.0754007285
100.075418407864
100.075463826048
100.075567371036
100.075537574772
100.075629155474
100.075608718345
100.075678164863
100.075691195653
100.075697486382
100.075694021367
100.075595994518
100.07560829191
100.07353004232
100.073452999869
100.07342116858
100.073369179248
100.07312265854
100.073134315347
100.073281954553
100.073392671978
100.073371665595
100.073490521087
100.073491104258
100.073595654417
100.073648832587
100.073703705002
100.073689647974
100.073575123224
100.071012493467
100.070928689899
100.070811855549
100.070785817457
100.07072443635
100.070128315405
100.070093833939
100.070521360923
100.070623839961
100.070637740312
100.070790137202
100.070858368877
100.071049764278
100.071112518474
100.071191706284
100.07113504045
100.067309351546
100.067132765917
100.067130596937
100.066917069077
100.066721177184
100.066920714809
100.065685272664
100.065541573646
100.066471216405
100.066352091589
100.066513351073
100.066780053259
100.066821622148
100.067183763783
100.067362007648
100.067416775717
100.061342425979
100.061184350623
100.060875715452
100.060998546502
100.060852817904
100.059969374152
100.06085333082
100.058330449664
100.058205627788
100.060166462396
100.059270141371
100.059987125342
100.060257223668
100.060254392245
100.060791464303
100.061175233869
100.038874195484
100.0390818524
100.035817001907
100.035529472373
100.039162251037
100.039743622811
100.034984190612
100.035454376048
100.035371214177
100.035278882824
100.034829009393
100.033728673188
100.038569974356
100.038235543119
100.034982912739
100.035416786437
100.041246562452
100.044039671014
100.044115615166
100.041966922118
100.041752782803
100.043403850694
100.045633717217
100.039426960756
100.026255783507
100.068635804809
100.104280609693
100.103958342506
100.067496111515
100.034695537685
100.03491054188
100.173530195801
100.298047740582
100.223507464214
100.221542646237
100.174732920812
100.159369533684
100.14475451315
100.038420786342
100.044959278718
100.043153007718
100.041167879991
100.15054161724
100.151191171248
100.189972420365
100.128912606643
100.12964568195
100.191323860861
100.152431311356
100.151249278886
100.187632026921
100.124594895744
100.122377629233
100.178501203599
100.145089551631
100.16229173671
100.177316921096
100.297329378561
100.367388240808
100.34572912864
100.342454023637
100.361228307905
100.339541641032
100.293097097111
100.458527581778
100.484770578033
100.491844614321
100.525738337699
100.595894166738
100.600101150247
100.520873576034
100.453894657779
100.387471543299
100.349550969662
100.373538747355
100.372036332604
100.368958045165
100.369048842074
100.369951188817
100.370922471557
100.372189803248
100.374015441253
100.376392659618
100.379164867897
100.382062927375
100.384627667505
100.38625793174
100.38501233924
100.383282108199
100.38122880285
100.37896648047
100.376660459247
100.374330331035
100.371990918593
100.369804143655
100.367957546298
100.36656785768
100.365655084969
100.365096770504
100.364737381508
100.364418949406
100.364002162562
100.363434114295
100.362749856864
100.362130296698
100.362036569796
100.363061114316
100.365359899235
100.368002900365
100.370309311217
100.372028339827
100.372701236095
100.3725843546
100.372505916379
100.371997529315
100.371711140119
100.369842548022
100.367285109239
100.364624670558
100.362570483216
100.361900496804
100.362242167268
100.363010613055
100.363728523675
100.364261633835
100.364611096798
100.36485162262
100.365120112692
100.365577873681
100.366382392714
100.367647781196
100.369357021491
100.371405675332
100.373615458442
100.375818216652
100.377951656432
100.379982519799
100.3817925071
100.383333259814
100.384452339266
100.38500213808
100.386872776121
100.388142208081
100.387489712766
100.386168185829
100.384316022584
100.382098111538
100.379669040407
100.377214144746
100.374778547354
100.372379917474
100.370133672664
100.36821350787
100.366729963061
100.365715597814
100.365064177926
100.364614379785
100.364208283953
100.363722997038
100.363127327076
100.362510984844
100.36209864309
100.362330379834
100.363686260244
100.366174390592
100.368752677508
100.370847396031
100.37239004513
100.372991733868
100.37286518236
100.372873027502
100.372997923233
100.372957492183
100.372992525603
100.372952697649
100.372979546751
100.372954207432
100.373017669873
100.373027149421
100.373179048209
100.373212819815
100.373260723012
100.37312632304
100.372927881669
100.372840904579
100.372787584297
100.373077512869
100.37304169456
100.372895316238
100.372878463402
100.372836178909
100.37285323074
100.372824781124
100.372873498978
100.372834232571
100.372866020734
100.372742773061
100.372576478815
100.372724068062
100.372684779948
100.372719211689
100.372676001983
100.37270643155
100.372707823334
100.372740313047
100.372733308474
100.372817024548
100.372596013249
100.37267054592
100.372518338979
100.372399862654
100.372391340407
100.372371959279
100.372577977519
100.372550524025
100.372539276889
100.372547959
100.372526852704
100.372565601978
100.372534383826
100.37257641285
100.372421348404
100.372292139114
100.372378785742
100.372360888619
100.372387824171
100.372359156712
100.37237556943
100.37237536137
100.372344718926
100.372477918961
100.372587593663
100.372689581011
100.372831646316
100.372970555438
100.37310564944
100.37309190412
100.373172721913
100.373182333326
100.373345521304
100.373379982151
100.373439007046
100.37339393279
100.373160356619
100.372881397541
100.372727818202
100.372609032961
100.372459640242
100.372325887071
100.372338070316
100.372427385818
100.37267583366
100.372856993796
100.372995287102
100.373239706254
100.373093886258
100.372902430601
100.372787675481
100.372653127365
100.372495673548
100.372392589735
100.372265877699
100.372119640167
100.371805857682
100.371755576496
100.371745632231
100.372185352878
100.372279340646
100.372112303555
100.372096614614
100.372278822561
100.372395331303
100.372527877892
100.372661105641
100.372772301719
100.37289286241
100.373024297012
100.37314050239
100.373269908334
100.373437754719
100.373461526989
100.373503631498
100.373409020783
100.373263770242
100.37303010618
100.372550840445
100.372014825198
100.371434381459
100.371322728603
100.371113722437
100.371304778221
100.371671453359
100.371951583381
100.372459538627
100.372242572634
100.371974029226
100.371473215364
100.37138823161
100.371281981287
100.371092443889
100.370951896878
100.371148044071
100.371393410282
100.371628789155
100.371812908797
100.37184448149
100.371533572672
100.37175055745
100.372047174423
100.371937277422
100.372275653533
100.372340748487
100.372582709442
100.372638348038
100.372690888058
100.372823394058
100.37295445303
100.373069751304
100.373080190526
100.373115249328
100.373076764294
100.373113677451
100.373228926705
100.373210000903
100.373276888811
100.373390062729
100.373428680374
100.373589159619
100.373677507123
100.373573561539
100.373666963052
100.373653294043
100.373770538886
100.373621920977
100.373566281501
100.373254865433
100.373328421129
100.373314204086
100.3734168063
100.373482874774
100.373516211919
100.373678142659
100.373796051908
100.373769049499
100.373785718177
100.373433890539
100.373276346619
100.373186278683
100.372758782212
100.372201067483
100.37162445436
100.370853409102
100.370528218661
100.370279249236
100.370099308749
100.369921844918
100.369796241796
100.369551751432
100.36932111226
100.36940480684
100.36977143781
100.370085829362
100.370235002371
100.37031340248
100.370487573191
100.370634197141
100.370267200222
100.370580273857
100.370207990685
100.370911741105
100.371925020899
100.372978515754
100.373168158214
100.373136479706
100.373234976492
100.373193666597
100.37322179838
100.373188822702
100.373299592608
100.373332822098
100.373428704055
100.373528003947
100.373525764806
100.373589950285
100.373636769877
100.373782436514
100.373891138962
100.373864847093
100.373863504697
100.373573143702
100.373401948866
100.373002671848
100.372511177776
100.371982018046
100.371781411935
100.371042186628
100.370748627462
100.370464723142
100.370336194518
100.370359373636
100.370053833407
100.369766171528
100.369571787509
100.369185131145
100.369409541048
100.369745263024
100.370041154604
100.370203178103
100.36992690934
100.369671331901
100.36931270503
100.369229995985
100.368832726035
100.368464703617
100.36819936119
100.368024070451
100.367943536023
100.368228313833
100.36849646307
100.368764856906
100.369070794884
100.368555210067
100.368759712779
100.368890104431
100.36919657843
100.369329151903
100.37050698035
100.371562503865
100.372707614669
100.372923073604
100.373059629613
100.373017655858
100.373119839025
100.373133106266
100.373233156961
100.373343023616
100.373338355038
100.373299709475
100.373331413467
100.373424565647
100.373397150014
100.373489456431
100.373578244431
100.37361372386
100.373620733607
100.373675855689
100.373721779156
100.373859337153
100.373967942091
100.373995516522
100.373935835099
100.373730099434
100.373514927373
100.373080612075
100.372577690573
100.372096341302
100.371394783589
100.37114580251
100.370987765734
100.370722938585
100.370617230589
100.37066657691
100.370554489475
100.37085959704
100.370567760902
100.37027102917
100.369968376686
100.369634289626
100.369284286889
100.36884680291
100.368430017909
100.367796409469
100.368094287478
100.368628427513
100.369097808783
100.36933320932
100.369624543434
100.369942613613
100.370250014027
100.37025151011
100.369948215106
100.36925356893
100.368064778878
100.36807267975
100.368059911451
100.367417797727
100.366995334065
100.365699568852
100.366125250548
100.366992492992
100.367796097987
100.368573929265
100.36870188477
100.369033248525
100.368506622854
100.367726627843
100.367074338995
100.365924808702
100.365087787789
100.364673487464
100.362390819631
100.361175027509
100.363345256235
100.364270589025
100.364878791468
100.365882568008
100.365486673002
100.363971579128
100.363359795414
100.36240375141
100.36137213671
100.360380386036
100.35962613209
100.360429302082
100.362127273314
100.363416449435
100.364097370298
100.365224575755
100.365677953288
100.366598966663
100.367729016631
100.368553109796
100.369351606371
100.36999281213
100.369192951299
100.369330718564
100.369499053908
100.373108658204
100.372704650985
100.372144651257
100.371414449644
100.370603161459
100.369560135563
100.368322415873
100.366767883461
100.36602639646
100.364389069966
100.364057288305
100.363980333606
100.362613433035
100.362108669385
100.360829026521
100.356782100498
100.357783532334
100.357066048966
100.358652505031
100.360200104616
100.36424583888
100.365004994132
100.368365066414
100.368956980345
100.370778465458
100.370087859279
100.368938221503
100.368823970032
100.368827379572
100.368947217567
100.36936610814
100.368612747837
100.366628309149
100.366013065391
100.365696856691
100.365724544999
100.368833460843
100.37066329509
100.37063802446
100.370958159588
100.371325507805
100.37126431118
100.371446413718
100.371226895536
100.371282660294
100.371227279502
100.371233348142
100.371044383861
100.370976109663
100.370918065873
100.370553039257
100.370540255277
100.370617105895
100.370550800873
100.370369770638
100.370459089458
100.370451599442
100.370657397073
100.370883260875
100.370932436442
100.371113205577
100.371042830756
100.371203444455
100.371179270769
100.371136993894
100.371286394885
100.371165406779
100.371230962098
100.370896104595
100.370908034382
100.371106352815
100.371082876756
100.371170017912
100.371035567964
100.371064629479
100.370899913722
100.370914511542
100.370724834775
100.370657693763
100.370608158677
100.370696038961
100.370905394405
100.370765784598
100.370550026696
100.37039718747
100.370124446935
100.369867053912
100.369652880319
100.369922770664
100.369814579948
100.370075889559
100.369930060167
100.370330246958
100.370488716848
100.370705011429
100.37066338754
100.370842160116
100.370855915862
100.370882801593
100.371009210742
100.370883124451
100.37094798325
100.370848632597
100.370618577141
100.370458945257
100.369616620233
100.369887155334
100.369966303197
100.37058636193
100.370681293724
100.370786864121
100.370923813658
100.370750166676
100.370806720682
100.37069246551
100.370538294605
100.370546865939
100.370338997295
100.370141149148
100.36998539511
100.370177527522
100.37030534347
100.370506388267
100.370410392029
100.370208816535
100.369982350445
100.369719719967
100.369232351989
100.368732716613
100.369268569961
100.369194168672
100.369616247825
100.369531509325
100.369906752326
100.370142696535
100.370320699371
100.370294825931
100.370511051674
100.370511845013
100.370549013043
100.370675334206
100.370784708216
100.370625440961
100.370606511486
100.370523485901
100.370089176264
100.370182121245
100.370444889147
100.370417948917
100.370710433527
100.37050656993
100.370706705352
100.370824922823
100.370923567347
100.371043820098
100.371156818101
100.371292361636
100.370485293546
100.371126384383
100.371188018168
100.371090004463
100.371427135021
100.371421995821
100.371414220777
100.371502492214
100.371444603309
100.37142140484
100.371391488258
100.371328594661
100.371285504153
100.371191464681
100.371172995094
100.371211947384
100.371217324463
100.371288721813
100.371448565125
100.371520584373
100.371528827241
100.371348144408
100.371370629397
100.371347719117
100.371080886548
100.370933480117
100.370811369974
100.370399855025
100.369911262592
100.369514457472
100.369700097966
100.36976414161
100.369709951252
100.369497817709
100.369762676334
100.369665064724
100.369985645353
100.370099024504
100.369953936588
100.37003402357
100.370199784357
100.37054149188
100.371074424789
100.371238763441
100.371406630589
100.371522163779
100.371670688386
100.371566805876
100.371624009532
100.37166647746
100.371606330913
100.371626316532
100.371564557016
100.371586409635
100.371836642256
100.371735257414
100.371735292099
100.371583384676
100.37158063074
100.371485047806
100.371268655329
100.37103638601
100.370796217009
100.370860105533
100.370851484481
100.371241107161
100.370966019389
100.371023156485
100.371177273768
100.371253016597
100.371525926137
100.371513776296
100.371669810441
100.371771344222
100.371810646519
100.371756444877
100.371902803751
100.372007007419
100.371906777886
100.371911242437
100.37192459946
100.371816353234
100.371816338765
100.371784829632
100.37200277838
100.372177983732
100.372207287445
100.372144842295
100.372159781802
100.37218637598
100.372119760239
100.372165236841
100.372106197041
100.371990729132
100.372047010818
100.371547563149
100.371396313051
100.371336552511
100.370959153195
100.370852890037
100.370773142125
100.370697850066
100.371186113369
100.371555576629
100.371691381352
100.371724153834
100.371775690834
100.371822324441
100.372012533848
100.371914024983
100.37196939058
100.372038342645
100.372164760323
100.372329013062
100.372496065523
100.372618398568
100.372783820267
100.372901555687
100.37303656072
100.373142974155
100.37325790721
100.373350025339
100.373449606434
100.373536028792
100.373625153218
100.373662312971
100.373691175131
100.373695893645
100.373757964812
100.373818611901
100.373959934996
100.374084092998
100.374107371298
100.374107866618
100.374119648582
100.373964604489
100.373673526714
100.373237882986
100.372736894808
100.372272265346
100.371594442863
100.371370380743
100.371120655444
100.371075025958
100.37110415465
100.370868942543
100.370772621788
100.371078259957
100.371108935168
100.371225368351
100.371307071615
100.371074981168
100.370844686512
100.370599406989
100.370319548593
100.370008807609
100.369559219496
100.369832838983
100.37019657003
100.370468104625
100.370728339664
100.370979065257
100.37086473652
100.370581006456
100.370304006935
100.370011677945
100.369615684038
100.369115344483
100.369578351386
100.369062704327
100.368547475517
100.368099871505
100.367673437365
100.366797960681
100.367255775777
100.367883001156
100.368208351729
100.368675117916
100.368633840443
100.368267586871
100.367734162518
100.367430371605
100.366860120981
100.367314326986
100.367902926299
100.369475938277
100.371706123401
100.372128782776
100.372509727929
100.372744285843
100.373260521604
100.373157588704
100.373263434958
100.373366355569
100.373435480179
100.373398150148
100.373488470105
100.373511277699
100.373592225129
100.373673367124
100.373742759078
100.373737667032
100.373764881777
100.37378252745
100.373842931056
100.373894927145
100.374020905791
100.374119404887
100.374162281197
100.374199326317
100.374022372371
100.373807856207
100.373369441493
100.372933997553
100.372456879018
100.371825888332
100.371566763255
100.371178773436
100.371278826997
100.371096592726
100.37121927077
100.371304371407
100.371498960765
100.371267083976
100.371312653085
100.371495310546
100.371556320072
100.371505157905
100.37157200033
100.371330804719
100.371107020767
100.370870603179
100.370597278242
100.370305069345
100.369968068334
100.369547095339
100.369152611521
100.368778704108
100.369153858806
100.369581592803
100.369829145743
100.370190208697
100.370490777112
100.370759539922
100.371001809651
100.371247577064
100.371245976751
100.37116114237
100.370594599606
100.370957276667
100.370145654523
100.369410358125
100.369897981874
100.36957233979
100.369657760539
100.369464804942
100.373448787242
100.372188294117
100.371588759137
100.37084299113
100.369961803255
100.368889441052
100.367692299961
100.366488722938
100.365366081042
100.364592085388
100.361809054137
100.361445763294
100.360803223919
100.360608054217
100.360377011915
100.361121857338
100.360729452331
100.360086223049
100.354793323091
100.355761658692
100.355402222931
100.356024908561
100.356682587538
100.35761661536
100.357934188337
100.357355729402
100.356241405136
100.357934791371
100.356748542081
100.357075752951
100.35782477474
100.357494803292
100.35629026543
100.355714116433
100.358791517739
100.354192087942
100.353248704375
100.35561532252
100.356032365086
100.356945985657
100.357908674
100.359471457764
100.360070842691
100.361107791604
100.358479766523
100.35860869391
100.359066890972
100.35823178288
100.357026126503
100.356709550734
100.358257007007
100.359775646705
100.361652715666
100.363352512646
100.364200627796
100.362612144728
100.364037475958
100.365638889833
100.36601398661
100.367506676567
100.366399318212
100.36762751131
100.36857935655
100.369419749537
100.370055752248
100.370609198066
100.370561829763
100.37084501113
100.37057044717
100.3696224072
100.37030801571
100.369859282094
100.373436223066
100.372703401379
100.370482827794
100.369678672067
100.368797400337
100.36784887042
100.366787194416
100.365655563344
100.364504037294
100.363407707685
100.362500259459
100.360560167258
100.360516315455
100.360441680284
100.359897080279
100.360195566202
100.358880116745
100.358911023582
100.360587503458
100.361978164078
100.363533701132
100.366084586461
100.369040328701
100.369450526894
100.366645177125
100.364016838906
100.362215958802
100.361830010441
100.362367367331
100.36323973318
100.363979018328
100.364480909901
100.364776173291
100.364956021224
100.365141297442
100.365485014787
100.366143693605
100.367218400195
100.368717957369
100.370575855014
100.372649805309
100.374762598268
100.3767263946
100.378473376151
100.379998675284
100.381298336695
100.382258018476
100.382734345544
100.382693370308
100.38497244164
100.386855125841
100.38813367378
100.388707269332
100.388710616469
100.388040354706
100.386681742411
100.384767655855
100.382472600203
100.379953488202
100.377414734962
100.374924722235
100.372504547096
100.370239019218
100.368291913011
100.366768312666
100.365701137577
100.364993479194
100.364472022514
100.363988522127
100.363446027764
100.362843517035
100.362329293992
100.36217823009
100.362769599371
100.364427645043
100.367027469923
100.369494883284
100.371396880082
100.37192099536
100.373058670083
100.373495375258
100.373414241587
100.373376055671
100.373211391504
100.373422879946
100.373514342011
100.373521956777
100.373607456138
100.373575353813
100.373654277851
100.373732106574
100.373794575782
100.373802591869
100.373803609272
100.373831273072
100.373855179448
100.37391452592
100.37396075209
100.374083309084
100.37420451706
100.374228597646
100.374294424956
100.374117906887
100.373909765327
100.373376747741
100.373057487589
100.372829924846
100.372505860668
100.3721496928
100.371846158735
100.371474179712
100.371465036435
100.371414925464
100.371537603978
100.371703986758
100.371631520466
100.371915385851
100.371756773295
100.371499204002
100.371690858521
100.371738438399
100.371768686933
100.371836469764
100.371642812506
100.371600160854
100.371274050928
100.37102172411
100.370775519777
100.370475113404
100.37015995728
100.369778267226
100.369542024083
100.36974418797
100.370132639172
100.370445008109
100.370748162976
100.370988701554
100.37123875715
100.371507827068
100.371479223189
100.371561939995
100.371480985505
100.371224825946
100.371397918302
100.371118595042
100.37136191884
100.370552372924
100.370872476085
100.370382161515
100.369976183173
100.370006728066
100.370648125824
100.370042648869
100.37342409071
100.373198728956
100.371362867777
100.369393890669
100.367227397974
100.365968772764
100.364903041944
100.363860953444
100.362953605624
100.362046228235
100.361383363419
100.360862870733
100.360621640268
100.360699179242
100.361071466773
100.360708631068
100.360123592011
100.360611631065
100.361080127019
100.361311144559
100.36119058041
100.360539957006
100.360400360305
100.360511108708
100.360410379263
100.359448787517
100.359895728463
100.359967445178
100.359736198101
100.359157748629
100.35935136095
100.360859269728
100.360406041297
100.360227532219
100.357782437331
100.358207727969
100.357096923986
100.358612415607
100.358016082585
100.358118467831
100.358998997062
100.359078659238
100.358816282381
100.359660068787
100.359767347996
100.35930529429
100.359015071498
100.359769477796
100.359451054253
100.361521549399
100.363220424439
100.360006445945
100.360356437357
100.360437563171
100.356641013599
100.356789348853
100.357841045876
100.360928080704
100.361748684896
100.364305490866
100.367402467395
100.368832142672
100.369186645336
100.370006098524
100.370127627111
100.370286362236
100.370279391881
100.370495496802
100.370359866473
100.370375107837
100.370278377866
100.370101141032
100.370068620998
100.369821078729
100.369569471457
100.36984257689
100.370051644903
100.369983864882
100.369699827433
100.369359441224
100.36891008261
100.369375348645
100.369414773236
100.369714414581
100.369691289341
100.369938759089
100.370152941118
100.370226394322
100.370195613904
100.370374363003
100.370390136129
100.370273488845
100.370459300794
100.370468579527
100.370234598402
100.370181234216
100.370082368253
100.369584846578
100.368535740502
100.368069289558
100.365487864533
100.367762992485
100.367500618017
100.368954559049
100.369885662529
100.370288181746
100.370326598326
100.370393321779
100.370583167374
100.370439933456
100.370493989829
100.370468077402
100.370583262545
100.370716501221
100.37079770032
100.370884251594
100.370925635961
100.370328798572
100.371011555765
100.371169820281
100.370644518095
100.368286860371
100.369361273667
100.369636753891
100.370646968491
100.370877982011
100.370795177763
100.370583881479
100.368764694572
100.369851600138
100.370232339184
100.370561454322
100.370723737148
100.370511753788
100.370467814822
100.370452929639
100.370209756844
100.369079020962
100.370075441576
100.370690701142
100.370595911557
100.370509730295
100.369452680294
100.370235210748
100.370271466279
100.370421680697
100.37054897573
100.370653797653
100.37075642317
100.370893353852