/*--------------------------------*- C++ -*----------------------------------*\
| =========                 |                                                 |
| \\      /  F ield         | OpenFOAM: The Open Source CFD Toolbox           |
|  \\    /   O peration     | Version:  v1612+                                |
|   \\  /    A nd           | Web:      www.OpenFOAM.com                      |
|    \\/     M anipulation  |                                                 |
\*---------------------------------------------------------------------------*/
FoamFile
{
    version     2.0;
    format      ascii;
    class       volScalarField;
    location    "0.7";
    object      p;
}
// * * * * * * * * * * * * * * * * * * * * * * * * * * * * * * * * * * * * * //

dimensions      [0 2 -2 0 0 0 0];

internalField   nonuniform List<scalar> 
79587
(
100.071275429531
100.07322010263
100.069844289963
100.074191238803
100.081232848878
100.081348411511
100.079303888684
100.079828695733
100.079941694525
100.080315835304
100.080603019215
100.080415068217
100.082293246549
100.081981185497
100.08431887389
100.084276454708
100.080958400786
100.0763114007
100.075293206401
100.075289959757
100.076279934521
100.075996569926
100.075214803868
100.076759594166
100.083168638944
100.083067093085
100.077410609928
100.075742108239
100.075715642566
100.074898884705
100.07477189926
100.075840311646
100.075752238139
100.077367614627
100.082830939189
100.082735000293
100.076560877439
100.075176478561
100.075986293802
100.0760575103
100.075154516943
100.075159340203
100.076226951868
100.080791684586
100.083935018195
100.083791427258
100.076893099268
100.076440884157
100.074154451687
100.073445592562
100.07357301103
100.07344025692
100.072847302404
100.071525331013
100.072642262174
100.073959467583
100.074057971672
100.073150705549
100.07218450926
100.07096011645
100.070630402194
100.071220458031
100.071144160825
100.070468505253
100.070970534153
100.072165599164
100.072995509711
100.074080906913
100.07415664692
100.072741704474
100.071663661532
100.073018013853
100.073511469549
100.073616306054
100.073403169998
100.074108479899
100.076647235793
100.077369502603
100.074959983485
100.077861458917
100.080776671636
100.08212822512
100.079805842865
100.079615317406
100.081007777438
100.079289152468
100.076927766096
100.072697953055
100.077975129058
100.066744918075
100.055743692065
100.061512436893
100.062608473174
100.073552531355
100.069223102829
100.069852209643
100.07217654876
100.070301055425
100.068818789696
100.068233420985
100.070953383974
100.072770025894
100.068629104197
100.067866756505
100.070065036041
100.066803434549
100.06569168511
100.066922636113
100.066923966152
100.065736991872
100.066812744033
100.070006293222
100.067738003571
100.068172949294
100.072811577934
100.071387422008
100.068519198817
100.068959293058
100.07034758098
100.072167960532
100.069753491471
100.069060719148
100.07381052068
100.073835371092
100.070816719039
100.073928842355
100.080140178328
100.084828677696
100.077772717957
100.077716148662
100.082521661706
100.098465005694
100.068162752611
100.068683784792
100.05299363277
100.02600914574
100.026946117954
100.022772411729
100.023071989554
100.02935986412
100.060777962773
100.071984635947
100.067689956479
100.067430110187
100.074121652591
100.062340541331
100.063036061037
100.062868250314
100.063097942587
100.070855082891
100.066392229531
100.066374278813
100.07079168291
100.063115316029
100.062928717592
100.063065319117
100.062197263991
100.06090117797
100.06290396751
100.060862507987
100.021230763988
100.023650101344
100.024458222347
100.024094904534
100.023490524218
100.023578591669
100.025052170423
100.025667138342
100.029796009263
100.027044550218
100.028030789035
100.031540936193
100.031544983928
100.028073777741
100.0270529633
100.029599390381
100.029104351821
100.0224994561
100.023315242598
100.029887234978
100.030565514579
100.029164233464
100.028816994392
100.03009164314
100.029998027854
100.029180732518
100.029507650231
100.029754586995
100.024723601664
100.025543560501
100.026772094633
100.0267272774
100.025456221085
100.024555059644
100.025460372407
100.024794742561
100.028985336753
100.030327651868
100.0309255533
100.031084417794
100.030464784774
100.030569337265
100.031228847322
100.03110907309
100.030542084995
100.030732740659
100.030883180606
100.030884533564
100.030077406825
100.029727929634
100.029666625931
100.029923106864
100.029476109763
100.029279429894
100.030524084046
100.028790682858
100.028625283341
100.028818052328
100.028652043279
100.028945846741
100.02926742962
100.029145073119
100.028999693268
100.028781297512
100.028944248786
100.02892373803
100.028917913969
100.028796960924
100.030537525853
100.030491624332
100.030771425602
100.030675398429
100.028784449921
100.026455618439
100.026498308932
100.026400953577
100.026508287165
100.026448835943
100.026269217514
100.026291823371
100.026500051005
100.026543847398
100.02643446993
100.026569985512
100.026524344992
100.026584188571
100.026536580524
100.026516187081
100.028768737115
100.028886662044
100.026557261859
100.024618410116
100.02453530875
100.024579808445
100.02452789097
100.024641692695
100.024761949677
100.024870524779
100.024612808775
100.024373917399
100.024534906232
100.024442286986
100.024561307368
100.024527548907
100.024616200191
100.024592420252
100.024587416727
100.022843683935
100.022865823553
100.022785752845
100.022828842512
100.02279205462
100.022841692797
100.022744590162
100.023016740969
100.022887136248
100.022549215315
100.022744972689
100.022627582288
100.022735447081
100.022707472599
100.022821623032
100.022831348792
100.02096588999
100.020991086627
100.020981054764
100.02086522088
100.020904085415
100.020858273179
100.02087554733
100.020657728119
100.020333688965
100.020393391937
100.020686910784
100.02077929695
100.020676438443
100.020770812406
100.020743319187
100.020917606807
100.018624033576
100.018722480037
100.018744027373
100.018683129656
100.018503170831
100.018544902164
100.018463852744
100.018493137002
100.018486351525
100.017709934637
100.0177454412
100.018458491419
100.018362995974
100.018349914978
100.018410458491
100.018379844826
100.014984513665
100.015451026287
100.015666747332
100.015660775566
100.015453692064
100.015037593573
100.015343971439
100.01523190734
100.015014360714
100.015459050767
100.014045805616
100.014033405582
100.015403778485
100.014927595438
100.01523810265
100.015255956359
100.01058863366
100.00910831651
100.010126341968
100.010970630322
100.010918484375
100.010075792419
100.008977133837
100.010516564102
100.010550387014
100.00896509418
100.010832929646
100.007558250035
100.007534108291
100.010890284463
100.009049170442
100.010675815979
99.9994719969082
99.9985685284329
99.9923630934109
99.9942402895958
99.9981517667738
99.9980171872271
99.9940871688792
99.9919912159982
99.9983682013389
99.9990998667734
99.9923552056549
99.9974033823061
99.9931864364813
99.9931771229902
99.9975204241893
99.9930363906388
100.000766646535
100.007964359627
100.005333142679
99.9977344959929
100.003221803645
100.004878491098
100.004615431889
100.002655595991
99.9968674982781
100.004570460154
100.007284120841
100.000215094368
99.9973214890427
100.029792672008
100.053092446293
100.052940063605
100.029826719818
99.9956732175181
99.9959645321943
100.089161272706
100.1746935811
100.11288771033
100.113222514207
100.098370667612
100.085377115906
100.073199691474
100.068957248333
100.062648282702
100.060195109011
100.071143158616
100.063110874262
100.062796464094
100.070198719961
100.059105065451
100.061563828961
100.068182735468
100.072338315608
100.084567320774
100.097324240231
100.19094580678
100.209435866892
100.209767122927
100.191725561406
100.191908455655
100.181150555781
100.204369752651
100.243965661874
100.155907820103
100.154508295014
100.20419108117
100.167266300674
100.190632696018
100.214252136587
100.154815660388
100.154325783076
100.2132791874
100.18934294543
100.165639337108
100.202175287339
100.152168231841
100.153898522491
100.202910329184
100.180296683257
100.190861868673
100.282332833409
100.32891526202
100.300426177894
100.300554876463
100.329775138015
100.301515173247
100.283408086278
100.406862542122
100.436214540193
100.391939005273
100.408476356521
100.407048444581
100.360487756876
100.303160106103
100.330893362322
100.279102896947
100.399680197021
100.43303941523
100.389240158091
100.389380722873
100.315150080177
100.315091856822
100.24388235886
100.291873022359
100.377343795858
100.422863240356
100.389257214675
100.393292504775
100.328531346887
100.280327606505
100.320042435489
100.298833136777
100.302219058413
100.325087299392
100.236237137854
100.235955381022
100.324854092918
100.301324803991
100.297435840353
100.317890014571
100.277902906239
100.326059085481
100.313028165841
100.313333310048
100.329487133611
100.30195221573
100.300569038313
100.359276313358
100.407465176269
100.391054096853
100.40634993699
100.436635959293
100.436933150624
100.407015320265
100.37859394733
100.378372860209
100.453999911942
100.474685482954
100.466458765845
100.466812033725
100.467527780849
100.45542254695
100.441247733819
100.48175099551
100.480221342417
100.478045221368
100.473765761829
100.467994669185
100.464403313948
100.450241411506
100.446504158869
100.448006137036
100.455540113857
100.427416188376
100.425927827137
100.426047620005
100.432824135887
100.45217480425
100.45071601895
100.429165675849
100.388050442105
100.394996154972
100.372184463213
100.404221778195
100.39139695883
100.391006138723
100.40321795339
100.370579459439
100.392968897132
100.385778220051
100.390693408949
100.386900934089
100.387709705862
100.387766873722
100.405949678317
100.445766678799
100.449461856266
100.45485365194
100.467059558592
100.47738833955
100.475061730468
100.481162640417
100.481611739403
100.475729757137
100.474550935008
100.474072368903
100.478539547675
100.47510533061
100.477037649498
100.477657645832
100.480276515962
100.47579341786
100.479039354579
100.47877280453
100.478187163334
100.478575340479
100.479304511285
100.476557760434
100.478400449996
100.478151213526
100.477198397699
100.474885240587
100.472289730619
100.46862661571
100.469736776811
100.461928671101
100.477855814773
100.477391974363
100.474290142956
100.473816978661
100.477121836842
100.471573144195
100.470027105679
100.474394488203
100.456867101355
100.457455188059
100.460814769812
100.47458330199
100.467879912112
100.465574377737
100.462854163543
100.444836848857
100.437029332359
100.442324252435
100.426589408934
100.426351103594
100.441769808831
100.436154553839
100.443151697578
100.426622671927
100.447848309647
100.449610755574
100.429930276504
100.423917462305
100.424405987605
100.426294695361
100.447198386766
100.461371987429
100.468067331277
100.467435380301
100.473124363269
100.477409542749
100.474998737008
100.479286483803
100.477802706554
100.477568709264
100.47792267282
100.478327114734
100.477734939157
100.47805522984
100.477363470938
100.478084089569
100.478317440516
100.477428558011
100.477858890349
100.477893768149
100.476594511653
100.478403712711
100.477994220105
100.476563345306
100.477020160834
100.476160420879
100.474664988283
100.476569602453
100.477124598811
100.47740531062
100.476027097227
100.476374476084
100.476880795211
100.475713928093
100.47590179625
100.473815060401
100.473561027987
100.474938228356
100.47544650583
100.474295843249
100.47287920107
100.47564536294
100.472379245581
100.474822134573
100.474316663844
100.477326493166
100.472206835422
100.471808760855
100.475329390103
100.473837333449
100.476367541337
100.470803832463
100.432785454985
100.429364951806
100.433362492836
100.444886818364
100.445455122688
100.433783870367
100.431543310918
100.429594249086
100.427707074627
100.423835007849
100.428093433866
100.421469828695
100.428824884956
100.447578186117
100.436038000418
100.440023690532
100.451257110014
100.473370246232
100.472306577229
100.475845163063
100.464582423022
100.467817305434
100.468037928337
100.467008897893
100.456893849155
100.445807674192
100.441522982105
100.418006287912
100.425789926455
100.432305760569
100.433533955407
100.426726176623
100.422251867846
100.433690513607
100.425339443587
100.423277058893
100.4369131712
100.442599126175
100.428822980435
100.427984334365
100.450996148632
100.482672539853
100.483205348537
100.47091365531
100.487255624814
100.469984041021
100.495689037896
100.478439086285
100.463761261761
100.465300554222
100.463886765476
100.466281664842
100.456441313822
100.459620087125
100.444185691808
100.425369060985
100.419654992295
100.425440513626
100.405905686616
100.414570338421
100.436663454882
100.435757847532
100.427589196473
100.423876392484
100.43535290591
100.427527382409
100.424131222229
100.434321682314
100.423815130023
100.42568535676
100.425137847586
100.42856285581
100.427726515928
100.450764064263
100.482399866861
100.48295786042
100.470539002709
100.486792644827
100.482713188682
100.438090780165
100.434390442389
100.434855708927
100.429370934904
100.43841533038
100.483075406677
100.480061576999
100.472455901648
100.486005056317
100.480533399211
100.461135895642
100.440045033191
100.45959584393
100.462784608025
100.459058291656
100.458744000114
100.459295219228
100.443930239052
100.425241291828
100.425854191699
100.425924849116
100.431526928151
100.433285087958
100.428868644057
100.435544051047
100.428617402013
100.422108614039
100.425052745966
100.435228801063
100.431376178349
100.44268786964
100.433249983169
100.432104250782
100.44104864843
100.428526968187
100.428421528104
100.423685540311
100.434376296968
100.436579794935
100.441762502194
100.439238686466
100.450562863143
100.472491914183
100.47164713166
100.475147755779
100.469258100966
100.494426088207
100.479311787469
100.428663660243
100.431346412908
100.431868101993
100.464162535007
100.462274319875
100.483396612521
100.479036987861
100.478543374301
100.462191131873
100.465317391181
100.455630638391
100.440608882894
100.417768545876
100.419391845913
100.425259830431
100.431527336232
100.433408893385
100.440683734672
100.440650083719
100.434956230694
100.436344998694
100.451091308452
100.445701113205
100.448445169936
100.447066166152
100.441169971198
100.43809217194
100.439191373767
100.436702747507
100.445356774733
100.445510208922
100.437280844142
100.439469514235
100.441058163347
100.43245999216
100.42397701509
100.423076711651
100.427270610312
100.43552987662
100.446834088075
100.466940888668
100.463688967191
100.462639368048
100.477151718542
100.479236270437
100.484515145944
100.471492543804
100.463537547193
100.461720028813
100.482718902347
100.457221536842
100.451125995057
100.45959045265
100.45782785722
100.450969435902
100.467208236953
100.467714877989
100.469620058407
100.470143587065
100.46960343756
100.470497503677
100.47298534844
100.476146034333
100.477534490356
100.477876817223
100.477635030012
100.47709254077
100.476663401279
100.476428684083
100.47658701451
100.477771915999
100.481348398662
100.491016856523
100.509381307897
100.545339634448
100.540939273613
100.480671395565
100.431601793172
100.382440570537
100.354703744035
100.374816904172
100.372826352794
100.370967016876
100.371467070927
100.372462262407
100.373414081226
100.374532601678
100.375964702934
100.377602188166
100.379219015888
100.380577608564
100.381503795513
100.38191091914
100.381881531499
100.381604186045
100.381079678721
100.380330680296
100.379377760746
100.378193326709
100.376830420474
100.375301115299
100.373601467993
100.371831756373
100.370163117213
100.368708818918
100.367536979564
100.36666098288
100.366105475362
100.36590964907
100.366083212715
100.366646128313
100.367622893621
100.368982732533
100.370565475698
100.372086763681
100.372816576254
100.372848887559
100.372794850924
100.372883625302
100.372851544586
100.372950261039
100.373235072149
100.373198820681
100.373319099237
100.37336725401
100.37366978067
100.373850215954
100.374070681404
100.374306387039
100.374334181702
100.374446028924
100.374282600712
100.374195013668
100.374059456567
100.373921395825
100.373770394346
100.373624333635
100.373429197431
100.373312222736
100.373143714695
100.373009162716
100.372877001405
100.372755021049
100.372601911115
100.372656657834
100.37257477327
100.37277844959
100.372881960632
100.373015394856
100.373142535018
100.373312793943
100.373439814701
100.373603717639
100.373759513483
100.373916202456
100.374050434775
100.374206013698
100.374381917483
100.374121750427
100.373960704649
100.373671851687
100.373514232365
100.373232523872
100.373240174938
100.373133653968
100.373168570075
100.372876021556
100.372816957806
100.372738075198
100.372759915336
100.372818970367
100.37308948869
100.373075193466
100.373160595545
100.373135533772
100.373391342597
100.373550391489
100.373854395279
100.373986187933
100.373856978075
100.373736717469
100.373403342994
100.373258806201
100.373059669157
100.373088143861
100.373013989463
100.372987250953
100.372768990922
100.372728186491
100.372617558483
100.372656295233
100.372723019622
100.372894546054
100.372940644474
100.37300937913
100.372989868107
100.373160111014
100.373256558345
100.373578106459
100.373728558759
100.373570054401
100.373431224628
100.373120617935
100.373080055518
100.372928220774
100.372915879041
100.372871735336
100.37282287829
100.372678358209
100.37263562155
100.372519301928
100.372557812976
100.372632447904
100.372746306897
100.372784652738
100.372755495311
100.372965063863
100.372947559332
100.373029443634
100.373289536134
100.373423957169
100.373288613853
100.373151887961
100.372887758848
100.372809004445
100.372799738587
100.372680806322
100.372722645853
100.372679997765
100.372590788482
100.372550733515
100.372449662195
100.372461877623
100.372545045013
100.372611161021
100.372646090925
100.3726225987
100.372688708491
100.37271244147
100.37275646442
100.372998124353
100.373138989789
100.372971997109
100.372856316551
100.372636000708
100.372646422929
100.372655836998
100.372589114818
100.372577992139
100.37256868034
100.372550893649
100.372505289931
100.372469127507
100.372364182842
100.372353691375
100.37245523402
100.3724950683
100.372515199715
100.372537091692
100.372536597872
100.372600943983
100.372591893507
100.372768025245
100.37285818796
100.372754575263
100.372671263615
100.37251104125
100.372516542378
100.372474884559
100.372476988329
100.372455715712
100.372443714478
100.37241078416
100.372364867513
100.372241470926
100.372241573168
100.372356104155
100.372390734509
100.372393292163
100.372419037246
100.372424050624
100.372458341745
100.37243183383
100.372583455784
100.372666712181
100.372529902822
100.372488055919
100.372370001324
100.372412268367
100.372363128654
100.372355930987
100.372336087769
100.372335763867
100.372303550594
100.372251591402
100.372114831869
100.372118663771
100.3722366432
100.372260915888
100.372269282768
100.372299854949
100.372308373079
100.372341664662
100.372273422706
100.372434016935
100.372457317932
100.372482723182
100.37242612235
100.372425928435
100.372353393142
100.372283812381
100.372294868581
100.3722874611
100.372223059295
100.372261952623
100.372229527982
100.372192353452
100.37218213376
100.372157034579
100.372036230712
100.37189441563
100.371832355186
100.371808445634
100.371834580725
100.371928487755
100.372009242958
100.372097614299
100.372111694058
100.372131744169
100.372176031675
100.372207305924
100.372182339267
100.372291147503
100.372288143258
100.372429108026
100.372274768622
100.372267746454
100.372327749033
100.372245925457
100.372215175019
100.372297586659
100.372177223542
100.372274280595
100.372263671938
100.372245827617
100.372132287238
100.372118209509
100.372094956591
100.372046886418
100.372013322689
100.372021530615
100.371935605609
100.371855388244
100.371735155485
100.371598913654
100.371727173039
100.371826826151
100.37187886997
100.371974216129
100.371957075731
100.371990543356
100.372034614268
100.372109489754
100.3720907095
100.372238150553
100.372235416773
100.372146979994
100.372202230395
100.372187941238
100.372213675025
100.372099542612
100.372100024247
100.372202315221
100.372009867851
100.372054236189
100.371991495041
100.371960114257
100.371908938744
100.371910753715
100.371825271969
100.371768633334
100.371650811494
100.371563889398
100.371633376342
100.37174769923
100.371791605208
100.371845144092
100.371858069372
100.371910655654
100.371945755439
100.371986121452
100.372020452325
100.372028814727
100.372004874598
100.372021873462
100.372033535802
100.372145604517
100.372105556217
100.372196101385
100.372257288623
100.372315200516
100.372359629864
100.372402996827
100.372437276811
100.372466145401
100.372484316044
100.372533774064
100.372568896473
100.372596673805
100.372618772598
100.372665844894
100.372713615603
100.372777665656
100.372868599789
100.372987331777
100.373104255253
100.373424419714
100.373546968157
100.373870711151
100.373949137816
100.374211846735
100.374413409633
100.374394068926
100.374588432936
100.374484889946
100.374363258474
100.374342996697
100.374062709685
100.373909411282
100.373829100379
100.373657971133
100.373520221668
100.373385418898
100.373252997648
100.373088480805
100.372958317165
100.372829598025
100.372707837658
100.372544382645
100.372462997063
100.372360171044
100.372487328999
100.372409372834
100.372628632241
100.372770578537
100.372914432011
100.373016382457
100.37315746814
100.373332010779
100.373476338567
100.373601950466
100.373756240893
100.373921873148
100.3740405665
100.374140542221
100.374328927485
100.374494902091
100.374540764601
100.374380412536
100.374142146137
100.373739118525
100.373235259157
100.373402720725
100.373535483784
100.37395857285
100.374316360284
100.374510212784
100.374635805394
100.374559695727
100.374425264815
100.374214013185
100.37391608243
100.373473136319
100.373390461561
100.373304884522
100.373087461442
100.372927289651
100.37257194695
100.3723816363
100.372247237305
100.372104005975
100.371993880022
100.371828849836
100.371718854827
100.371594654545
100.371474774243
100.37131087275
100.371535237353
100.371769254791
100.371969394734
100.372058255434
100.372189169534
100.372329093874
100.372493035385
100.372592724362
100.372740615044
100.372866370623
100.373041013506
100.373434460723
100.373463331995
100.373666402963
100.373839874605
100.374192446188
100.373930233388
100.373868318528
100.374042246727
100.373833647082
100.373550752073
100.372894356946
100.372741248234
100.372992219055
100.373301196288
100.373274707821
100.373332470754
100.373489594196
100.373609186189
100.373731079057
100.374031792437
100.374381269786
100.374567936347
100.374672362874
100.374623779086
100.374468660874
100.374175016796
100.373875249374
100.373769577606
100.37349712226
100.373132321976
100.37263284835
100.372557632396
100.372390076446
100.37212711974
100.371910241764
100.371767163725
100.371602391047
100.371407766651
100.371231860031
100.371068491406
100.370976043778
100.37081064074
100.370665323185
100.3704597255
100.370314762032
100.370186575278
100.370112362013
100.369909039219
100.369730371307
100.369892334486
100.370238369561
100.370465671502
100.370591566463
100.370583251419
100.370703712086
100.370822922336
100.370996921754
100.371118440964
100.371283511155
100.37139393162
100.371545058173
100.371695760803
100.371919559413
100.372200693942
100.37233771684
100.372726384167
100.372754075676
100.372943301445
100.372695604483
100.373026000751
100.373327829583
100.37336917461
100.37337845696
100.372926918048
100.37292606368
100.373020832459
100.373044700214
100.37327753363
100.373504479492
100.373462169464
100.373666074306
100.37367178226
100.3738360009
100.374095126048
100.374452948734
100.374614852464
100.374725499526
100.374629268003
100.374636849287
100.374561267791
100.374322335287
100.373969969811
100.373569956519
100.373195120073
100.372720708397
100.372191597732
100.371984371552
100.371903680754
100.371698250108
100.371587292327
100.371449462114
100.371295011046
100.371158488328
100.371054461158
100.370821617024
100.37078459158
100.370593055638
100.370415375736
100.370277946978
100.370035619596
100.369817601894
100.369605859365
100.369465908211
100.369292827933
100.369489436353
100.369755352258
100.369985573378
100.370194568971
100.370412338482
100.370497721238
100.370658038919
100.370828998489
100.371038393774
100.371124212831
100.371294483892
100.371474070272
100.37169339397
100.371817659613
100.372085298742
100.372045388305
100.37174442303
100.372047817741
100.372229898372
100.372513157528
100.37244698563
100.372557935905
100.373814989344
100.373596846092
100.373462081189
100.372913179656
100.372817835097
100.373163588723
100.373234424849
100.373586839996
100.373515295822
100.373687699782
100.373716252356
100.374134361934
100.374359392331
100.374670328168
100.374821928584
100.374717690065
100.374797333581
100.374685099387
100.37459754974
100.374337166947
100.374039869967
100.373563282363
100.373237915699
100.373031620433
100.372749120429
100.372455038986
100.372130587073
100.371764994605
100.371762498814
100.371683894436
100.371560032632
100.371626923655
100.371431885585
100.371304054855
100.371225778742
100.371107556882
100.37128933557
100.371074364732
100.370868736682
100.370727830318
100.370556668321
100.370364309692
100.370096446548
100.369846716112
100.369600294395
100.369332339896
100.369004622451
100.368660605577
100.368327807516
100.367878405326
100.368129429737
100.368559388487
100.368931111833
100.369140586914
100.369351478267
100.369594877255
100.36983471484
100.370104096798
100.370261691911
100.370427157561
100.370622760837
100.37091686036
100.371088490504
100.371021500597
100.37105089074
100.37118332123
100.371316078652
100.371575612095
100.371656559927
100.371633296102
100.371445212783
100.371381141862
100.371441647598
100.371464329066
100.371467731973
100.372766383153
100.37001581039
100.368889717583
100.368433830394
100.367658625092
100.36699591019
100.366556229872
100.366186432344
100.365887474828
100.365450434584
100.364744469019
100.363828467383
100.360808651203
100.357649851594
100.363371395338
100.36349251682
100.364389343491
100.365398868094
100.366887671531
100.367842529017
100.368594375514
100.369159921611
100.369616246359
100.37000987952
100.370215474784
100.370451904505
100.371037396254
100.36967004313
100.371578956236
100.368984631622
100.372661792592
100.372567561785
100.372822760248
100.37282121523
100.372980767685
100.373143684004
100.373446979334
100.373484171229
100.372922351569
100.371951167116
100.370709771171
100.368987700649
100.367483519953
100.366395703812
100.369251962352
100.371514004915
100.368446856913
100.364415405925
100.36193741553
100.360749104926
100.351691143842
100.355624142632
100.352712517485
100.35597526859
100.356073780784
100.357734434542
100.361636773582
100.361048508887
100.358566547123
100.359860536515
100.356336554038
100.357854401304
100.359492094796
100.360254041774
100.361241881191
100.362661253613
100.362159076534
100.365086611893
100.367197123327
100.36886033796
100.370771977956
100.371586014276
100.371719861128
100.371807759305
100.371751824076
100.372209568245
100.372397200676
100.372559896269
100.372674145022
100.372816508588
100.372966875715
100.373108734404
100.373269330642
100.373135977045
100.372874773059
100.373086411128
100.372983909425
100.373131147708
100.373341932365
100.373052586505
100.373159332941
100.37346370619
100.373574459209
100.373524246258
100.37361875793
100.373974893
100.374215256114
100.374523545217
100.374669446754
100.374788699382
100.374806977838
100.374611587039
100.374363117303
100.374005819374
100.374118367831
100.374293017288
100.374616334178
100.374761348536
100.374828927815
100.374806471741
100.374654118457
100.37444190896
100.374342945713
100.374292602787
100.374062351647
100.373760148742
100.373333174971
100.372774770983
100.372536037048
100.372374910373
100.372187146309
100.371990218919
100.371879447477
100.371722397262
100.371936581162
100.371851323683
100.372065661473
100.371999229754
100.371893192377
100.371751511047
100.371951545243
100.371810171178
100.371713925822
100.371579491378
100.371439670909
100.371273415914
100.371086773314
100.371220710048
100.370992358649
100.370792098925
100.370584019089
100.370349023559
100.370076932052
100.369810208128
100.369305501087
100.369545775766
100.369876461827
100.370138397064
100.370370080375
100.37059635383
100.370810913222
100.371035457823
100.370826508683
100.370863766355
100.371044674132
100.371229892306
100.371450643957
100.371567527262
100.371731379106
100.37149272603
100.371558539536
100.371741092467
100.371816752333
100.371713721835
100.371651196172
100.371450714108
100.371168694315
100.370744852284
100.370750799339
100.370885273201
100.371219679679
100.371479128324
100.372022536102
100.372488749686
100.372851531709
100.373169168969
100.373417393229
100.373199237585
100.373213525418
100.3733908028
100.373701081903
100.373625846531
100.373812061931
100.373915762935
100.374240621993
100.37467112394
100.37460120062
100.374734795033
100.374760971519
100.374622735781
100.374611703419
100.374522631192
100.374241447149
100.373915826852
100.373755011925
100.373418560776
100.372944892873
100.372638618028
100.372191766541
100.372068540792
100.371955909948
100.371933199639
100.371908397737
100.372023161207
100.371974071942
100.372257807058
100.37214041467
100.372372698962
100.37227655915
100.372267181513
100.372077693395
100.37220588027
100.372073695048
100.371990111155
100.371914240029
100.371821183588
100.371617422488
100.371610241897
100.371446313876
100.371268365265
100.371063268726
100.370860569803
100.370650919299
100.370394126307
100.370114347966
100.369821708605
100.369502421093
100.369121763646
100.368747589611
100.369094588931
100.369464869436
100.369650890176
100.369959407279
100.37024888074
100.370502024545
100.370718404305
100.37094046491
100.371160189612
100.371422165177
100.371602408094
100.371469256158
100.371558864689
100.371680692076
100.371758062049
100.371880657729
100.372095479084
100.371930498781
100.371934746279
100.372009681763
100.372174811702
100.371977275808
100.371954233626
100.371606434566
100.371008599992
100.370771243602