/*--------------------------------*- C++ -*----------------------------------*\
| =========                 |                                                 |
| \\      /  F ield         | OpenFOAM: The Open Source CFD Toolbox           |
|  \\    /   O peration     | Version:  v1612+                                |
|   \\  /    A nd           | Web:      www.OpenFOAM.com                      |
|    \\/     M anipulation  |                                                 |
\*---------------------------------------------------------------------------*/
FoamFile
{
    version     2.0;
    format      ascii;
    class       volScalarField;
    location    "2";
    object      p;
}
// * * * * * * * * * * * * * * * * * * * * * * * * * * * * * * * * * * * * * //

dimensions      [0 2 -2 0 0 0 0];

internalField   nonuniform List<scalar> 
81489
(
99.9988077260751
100.00363194585
99.9968427451976
100.001111224754
100.006426360427
100.00310029364
100.002722604944
100.002774609809
100.00294465196
100.002560490768
100.003165558995
100.00625171262
100.010095961802
100.008930402225
100.007132443139
100.008136897747
100.005284366592
100.002900940791
100.002919004096
100.005297896543
100.008110672123
100.007088293695
100.008895909976
100.010050132665
100.006229324608
100.003134480836
100.002529033479
100.002919025974
100.002746732377
100.002690790599
100.003066119796
100.006405624967
100.010216771841
100.009064172941
100.007125764877
100.008137760772
100.005326122351
100.002966201482
100.002949403347
100.00531299683
100.008161438079
100.00717299358
100.009103729486
100.010256189047
100.003414509234
100.002702762663
99.9984257264855
99.9989369405514
100.000293825225
100.000712909915
100.000740615914
100.000316438259
99.9989177603202
99.9983904562988
100.002672505768
100.003385803768
100.001108364641
100.000041601967
100.000741915956
100.000979750121
100.000933168643
100.000606911882
100.000267900206
100.001243144199
100.003375552294
100.002648988385
99.9983648748059
99.9988753543695
100.000271759511
100.000696621335
100.000666830225
100.000241768067
99.9988983645356
99.9984030395912
100.002680764713
100.003402142886
100.001246346157
100.00028202201
100.000623928526
100.000951383784
100.000998534674
100.000757994247
100.000057536917
99.9968193764577
99.9989515027022
99.9988602606361
99.9875562069863
99.9899513254634
99.990085376895
100.0003942337
99.9950152992781
99.9931004918844
99.9955211164831
99.9976774832615
99.9977076176298
99.9955238534213
99.993051196698
99.9949744542597
100.000364019149
100.000373247233
99.9968464191108
99.9968078208626
99.9989453296836
99.9977899933955
99.9977662813187
99.9989943378806
99.996890394793
99.9967317955755
100.000324100809
100.000372264892
99.9949600976905
99.9930028417379
99.9954739227444
99.9976606835134
99.9976327057215
99.9954619375302
99.9930471605587
99.9949989135548
100.000401839059
100.000359055641
99.9967305874308
99.9969036003182
99.9990017687117
99.9977843354083
99.9978088922113
99.994870942788
99.9948223567325
99.9875992184615
99.9577991647884
99.9577197787494
99.9521220527445
99.9530952701767
99.9582607757426
99.9886422065356
99.995671620537
99.9950062433443
99.9950020603922
99.9955975319447
99.9982291066527
99.9900838906518
99.9899130602421
100.003643158231
99.9988528496277
99.9948434699831
99.9947973064005
99.9985754345239
100.003223103925
99.9899023899692
99.9900853365443
99.9885826650846
99.988620638399
99.9900902826213
99.98994107961
99.952254840983
99.9520325855639
99.9535411022749
99.9535297582449
99.9520164865217
99.952543869949
99.9533696391766
99.9533903403994
99.9583097562394
99.9886061830601
99.9827048707324
99.9659959072767
99.9595654351615
99.9594057584587
99.9569515208067
99.9580050887681
99.9525605380827
99.9531944196652
99.9521754363622
99.9577444856246
99.9875276683164
99.9875705898475
99.957824444921
99.9523057374869
99.9532692398462
99.9583475944696
99.958299093327
99.9531725610257
99.9525576862499
99.9580125021137
99.957883262361
99.9571600155198
99.9571706692107
99.95791418896
99.958032032412
99.9569582183665
99.9582796614089
99.9582738628708
99.9588984707785
99.958857795182
99.9579024807876
99.952034007457
99.9535527548419
99.9535661074799
99.9520535150387
99.9525742446126
99.9534195113476
99.9533981337785
99.956961266362
99.9582699705957
99.9589037830258
99.9588540403094
99.9583470073795
99.9583526333771
99.9588763506934
99.9589160794496
99.9568356458893
99.9566498315498
99.9566481948879
99.9568280601962
99.9567691476741
99.9566335473243
99.9583382178564
99.957170126455
99.9571593151274
99.9578727995529
99.9579840169804
99.9569548926495
99.958262755159
99.9566303853591
99.9566350442151
99.9568290604364
99.9567771730033
99.9566549456642
99.9566560340158
99.9567891265137
99.9544299789961
99.9544601748493
99.9543829506353
99.9543785347911
99.9544443614311
99.9544046325082
99.954359584421
99.9543531063594
99.956630986229
99.958331679086
99.9588379162822
99.9588781971189
99.9568071324228
99.9544128333718
99.9543472717842
99.9543547408641
99.9544374956439
99.9544193235702
99.9543909332045
99.9543924630453
99.9524710861347
99.952504930025
99.9525170964619
99.9524498189639
99.9524419093494
99.9524892275279
99.952469894659
99.9524178353784
99.9524041431737
99.9524221139537
99.954383201551
99.9567580170177
99.9573268426426
99.9546868874187
99.9527020363581
99.9524325305005
99.9523817054863
99.9523969286332
99.9524746725182
99.9524854109305
99.9524637593688
99.9507049082342
99.9507226075629
99.95075252761
99.9507509392444
99.9507016320879
99.9506906133621
99.950704104337
99.950687484431
99.9506323079769
99.9506119013087
99.950607057787
99.9506092437811
99.9505781384797
99.9506051290624
99.9506746597622
99.9507037879734
99.9487733391813
99.9487963524209
99.9488310188305
99.9488570624767
99.9488613879535
99.9488157525203
99.9488003458986
99.9487768425324
99.9487536042953
99.9486812015854
99.9486516739755
99.9486290078796
99.9486127679079
99.9485974529859
99.9486461391
99.9487238487608
99.9463852478422
99.946440657277
99.9464692111214
99.94652403328
99.9465732077685
99.9465814211052
99.9465098877156
99.9464956921272
99.9464800581227
99.9464179526153
99.9462831723822
99.9462388149684
99.946205899761
99.946156630297
99.9461243386842
99.9462245074479
99.9428683191355
99.9431076044919
99.9432096968705
99.9432452459472
99.9433204989238
99.9433899340801
99.9434158640042
99.9433299232716
99.9432942684063
99.9432780600909
99.9431564274825
99.9429462394774
99.9428523753167
99.9428156591611
99.9426825892099
99.9426523078018
99.9373405138995
99.9376956438581
99.9376871202918
99.937857707045
99.9381317148928
99.9383585993039
99.9383069426886
99.9383194161713
99.9384803901494
99.9383709101934
99.9380766172155
99.9378418738226
99.9378869848361
99.937665817534
99.9373143478991
99.9370268050045
99.9219734178102
99.9234914162185
99.9236931245774
99.922465887606
99.9229348551986
99.9250517542985
99.9255107567634
99.9238605848722
99.9238325410102
99.9251597296519
99.9248083991608
99.9231922056142
99.9229114298016
99.9241601306133
99.9237635161558
99.922201299976
99.9353380582642
99.9355585721184
99.9322593493806
99.9324122991767
99.9362204603827
99.9367562133189
99.9340748516451
99.9347911938943
99.9384384080179
99.9386551140979
99.9350401809873
99.9345013577974
99.9374233678304
99.9367111077869
99.9330411012735
99.9324765624653
99.9912133779134
100.044392003089
100.00071041404
99.9997960493654
100.042136027792
99.9890650127349
99.9886064230287
100.042574939668
100.000511426306
100.002702987669
100.047286176714
100.080807240379
100.081106572999
100.04868371661
99.9946947489054
99.9937988378095
100.118129350995
100.218224693038
100.176442632384
100.177201901536
100.149763247024
100.143247250476
100.141491619584
100.004175812613
100.047155770211
100.07786948748
99.9930388715632
99.992328808069
100.046001568221
100.002535694987
100.002570298122
100.045722846364
99.9919392496266
100.077842258996
100.077422076401
100.172181800182
100.144238644945
100.13751774212
100.135458398149
100.139691594947
100.165606587462
100.166216566965
100.141313811183
100.137643247928
100.13987120496
100.147607941806
100.239054996711
100.280783161455
100.260255086645
100.261170321689
100.282980513659
100.271285070536
100.242471195408
100.336953728892
100.371913456304
100.346311273601
100.335578028154
100.335188942509
100.341613553363
100.278103861977
100.239470581031
100.271046590751
100.335304566397
100.36910371768
100.390076417798
100.396510612927
100.398372842949
100.402386843018
100.403985012162
100.403791020857
100.403357046904
100.403029800482
100.402851375884
100.402808115191
100.402625424732
100.402348685087
100.40213549039
100.402087719202
100.402563636044
100.403690568061
100.405434244208
100.407526582631
100.411036389233
100.418089154764
100.433095629362
100.456406089277
100.494437369076
100.491163211333
100.427277903792
100.371311181922
100.315144216757
100.283610230738
100.30398249043
100.303275408626
100.301076663861
100.301379095245
100.302423443785
100.303463889257
100.304646794889
100.306174707013
100.307999923614
100.309926930814
100.311706966852
100.313086015758
100.313818166265
100.312617205785
100.311133725851
100.309455851823
100.307734625909
100.306035683963
100.304366035969
100.302765963006
100.301311363401
100.300092492098
100.299134134826
100.298417512963
100.297912881105
100.297563481808
100.297331675766
100.297187721289
100.297113537127
100.297113767651
100.297206351922
100.297420591745
100.297811322205
100.298437407538
100.299463988607
100.300784307068
100.301894078717
100.302252127959
100.302189717236
100.302302069187
100.302236246854
100.302430930395
100.302344736913
100.302425410344
100.302382765664
100.302337259829
100.302132767442
100.301902684311
100.301855316804
100.301829715168
100.302180157166
100.302119522251
100.302104265722
100.302272078268
100.302330747766
100.302365463024
100.302322745996
100.302381937239
100.302244383676
100.302269993787
100.302187900586
100.30222379354
100.301926859604
100.301323762752
100.302047982331
100.302227842209
100.302217479358
100.302265400497
100.302258468373
100.302364797452
100.302318859176
100.302342759376
100.302317525488
100.302252247696
100.302245873484
100.302092158869
100.30216218766
100.302320635873
100.302316723148
100.302353018579
100.302315192782
100.302333234571
100.302319935795
100.302358318819
100.302268363159
100.302262032177
100.302219097147
100.302227808565
100.302016401629
100.301727838983
100.302154688678
100.30223798559
100.302247045236
100.302271033941
100.302285560762
100.30235331434
100.302331418813
100.302340420997
100.302341949566
100.302330832051
100.30239873138
100.302377876639
100.302319903219
100.302004936315
100.30175410438
100.301990322967
100.302286133949
100.302223303879
100.302419379348
100.302467188282
100.302444783188
100.302357444745
100.302395275893
100.302363864343
100.302298925909
100.302280541369
100.30226469856
100.30227748072
100.302169266724
100.302233821672
100.301737600044
100.301148957525
100.301957079808
100.30220447726
100.30221843792
100.30229341572
100.302314268972
100.30230291501
100.302340856045
100.302400884905
100.302408592129
100.302394420415
100.302394041643
100.302501178959
100.302555430072
100.302518254138
100.302386994861
100.30252852947
100.302720487196
100.302648447943
100.302639478003
100.302565225754
100.30243574858
100.302426657399
100.302438861634
100.302388450308
100.302352413333
100.302326511383
100.302336991422
100.302346782429
100.302263933048
100.302271724787
100.301975902119
100.301754537514
100.302188097177
100.302325071056
100.302320847635
100.302385064428
100.302374586423
100.302412979707
100.302426303737
100.302473288818
100.302502804236
100.302524100772
100.302668398444
100.302806477031
100.302719075106
100.302819327415
100.302729465349
100.302562548434
100.3025871594
100.302783569643
100.302918624429
100.302934087115
100.30281546238
100.302624274301
100.30288205487
100.302974526031
100.303109976898
100.303189154244
100.303186928298
100.303062309694
100.302994059389
100.30285189271
100.30263352242
100.302618161997
100.302542793244
100.302495081157
100.302462277277
100.302476790975
100.302427097696
100.302375737568
100.302389482086
100.302139462708
100.302143270635
100.302357667099
100.302443234699
100.302439514674
100.302474662556
100.302567455366
100.302527661338
100.302586354879
100.302600054624
100.302619864123
100.302661245707
100.302691438109
100.302927064628
100.303083029768
100.303197110469
100.303172031106
100.30317310399
100.303045353022
100.303023112743
100.30282501029
100.302757471617
100.302690990434
100.302663511675
100.302618406184
100.302569674305
100.302591818297
100.302575745956
100.302573586199
100.302502280207
100.302279147741
100.302451709812
100.302501951751
100.302545175374
100.302643178834
100.302620408321
100.302633717315
100.302711585843
100.302781597601
100.302794963965
100.302864635516
100.303110854694
100.303239223064
100.303240157576
100.303150824708
100.302955898937
100.303194020004
100.303224568627
100.303376840395
100.303363287891
100.303275145331
100.303165571927
100.302963484582
100.302906335015
100.302802541054
100.302834321586
100.302798808201
100.302734587496
100.302739736341
100.302696360881
100.302629300475
100.302669079286
100.302671102087
100.302334553684
100.302467041155
100.30259914326
100.302506754071
100.302736792115
100.302693475248
100.302794312741
100.302756788269
100.302833780331
100.302883157661
100.302935208135
100.303030165503
100.303056278426
100.303234592154
100.303380896857
100.303341245002
100.303379810196
100.303250887956
100.303293697136
100.303429386328
100.303507648249
100.30345827281
100.303614401234
100.303681291693
100.303660993444
100.303544480331
100.303408987343
100.303187157417
100.30308108083
100.303019552783
100.302992196045
100.302923767863
100.302873512562
100.302955103499
100.302783606049
100.302825871524
100.302736445627
100.302715385657
100.302443425977
100.301845718694
100.301029871879
100.302026112583
100.301404863429
100.300664605663
100.299895796009
100.299245438374
100.300515529608
100.299933382312
100.298774172098
100.298015906626
100.297525540549
100.29723419545
100.297095110702
100.297068619418
100.297130378154
100.297266851064
100.297486951672
100.297812006479
100.29827821055
100.298943175443
100.299845604281
100.301016583155
100.302421206949
100.303969259567
100.305561386913
100.307155071043
100.308753010594
100.310298729098
100.311646917875
100.312731118893
100.313499320291
100.314668570857
100.315446482705
100.314555661511
100.313290315183
100.311728473104
100.309964538001
100.308157259909
100.306382303703
100.304654867866
100.303012404086
100.3015207903
100.300264801335
100.299262532384
100.298509521994
100.297977819812
100.29761148832
100.297368908458
100.29721651778
100.297131864822
100.297116369333
100.297184424447
100.297363480677
100.297709504429
100.298284735341
100.299256876296
100.30053477867
100.301795153091
100.302292054017
100.302293036044
100.302346742211
100.302384686022
100.302527215049
100.302423853302
100.302585431383
100.302565816502
100.302553610467
100.302348468422
100.302093351858
100.302021049641
100.301520589585
100.300932823198
100.300156044873
100.300081555614
100.300219514908
100.300400067458
100.300737797153
100.301305041905
100.301238610929
100.301021485905
100.300942154072
100.30088090334
100.301424403158
100.301467260065
100.301562902905
100.301719402947
100.301976743316
100.302154741828
100.301803889744
100.301452177642
100.300997649711
100.300438285661
100.299535610011
100.300024653244
100.300756972866
100.300765325957
100.301284165228
100.301455961031
100.300988866886
100.301388831563
100.301674649899
100.302111635382
100.302056704792
100.301865542124
100.302230516728
100.302379892401
100.302576370382
100.302265100778
100.301939598553
100.301532661348
100.300853682854
100.301284662109
100.301741038237
100.301807067019
100.302300382198
100.302586096889
100.30212341888
100.302332297091
100.302675501038
100.302729647275
100.303002933162
100.302867996675
100.302653603535
100.302774940501
100.302778966532
100.30267889227
100.302528397572
100.302529559508
100.302472079404
100.302443480862
100.302369909968
100.302317136996
100.302252061654
100.302234170646
100.302231064777
100.302222811715
100.302193501802
100.302198275296
100.302192929027
100.302182351135
100.302191950769
100.302276406262
100.302209403855
100.302375404891
100.302236276147
100.30248827447
100.302379617985
100.302513715343
100.302479889006
100.302465101518
100.302247766001
100.302168598253
100.302333869195
100.302446002186
100.302471490627
100.302539989786
100.302578671375
100.302595311805
100.302628245445
100.302607249732
100.302386329058
100.302140170125
100.301626511174
100.30100879933
100.300169825654
100.30016892706
100.298988285971
100.297823184371
100.295871311815
100.295984532683
100.29738889597
100.297862454586
100.298926628669
100.298883917627
100.29782416697
100.29822586974
100.298636273114
100.299126067816
100.297788819214
100.29671746562
100.295133356996
100.296558567601
100.297119654027
100.297867168847
100.298484332494
100.299010038924
100.299808096085
100.299918903538
100.299569687806
100.29882423164
100.298117547254
100.297908028305
100.298618872528
100.298196250233
100.299404372735
100.301616381206
100.301950832067
100.301965837405
100.301955629563
100.301848305731
100.301766544207
100.301682365883
100.301814818823
100.301639397548
100.301594120761
100.301761439186
100.302294723784
100.302306636677
100.302363387119
100.30244224536
100.302437607661
100.302574773592
100.302583917336
100.30261085929
100.302651799628
100.30264153875
100.302401252761
100.302202198021
100.301650845894
100.301051816564
100.300234657331
100.298945853905
100.297792404531
100.295724387156
100.295674331871
100.293136187457
100.290035848819
100.290526859657
100.291077312566
100.292107894835
100.293157774865
100.294153758238
100.291969051657
100.290044583756
100.291826734434
100.293390290008
100.294314706004
100.295582565284
100.295644577098
100.294784024728
100.29338226366
100.292857483942
100.294270026156
100.29566678889
100.296176928548
100.29586465364
100.297385858083
100.298897496059
100.301314292874
100.30172935443
100.301533103725
100.300724528176
100.301379230386
100.30127722762
100.300407542715
100.301212631424
100.301226050237
100.301599903582
100.301764001418
100.302287369652
100.302296172924
100.302358254088
100.302442600262
100.302444793541
100.302533305355
100.302460708383
100.302622372487
100.302619857722
100.302631437714
100.302400129892
100.302210209343
100.301685918417
100.301062578102
100.300268433941
100.299014911931
100.297866524641
100.295903346294
100.293394500472
100.290386508503
100.290013461315
100.286216359966
100.282001014547
100.259547549924
100.259209802073
100.263024172771
100.280079532971
100.282998728002
100.281958559187
100.28622734055
100.286866523569
100.287624853362
100.281573955407
100.28517660756
100.287714834685
100.284245807304
100.279617601394
100.271837903245
100.279248178063
100.284499156397
100.284323894836
100.287140438617
100.289301643902
100.287346420128
100.290427605045
100.291913216772
100.293345847453
100.294529346898
100.29442302875
100.292832017006
100.291517601308
100.291155579523
100.292565244595
100.293807554698
100.294293671751
100.294773479046
100.292691628646
100.293798970083
100.294110147376
100.294329336576
100.294366259542
100.294719985427
100.294287169132
100.292589994224
100.293474019072
100.29221344107
100.295189851838
100.293765341925
100.293599194303
100.293863786682
100.293777914605
100.293330877454
100.294061529487
100.293955495816
100.293559335816
100.292385058273
100.291534864852
100.293372130776
100.291825621884
100.291504248505
100.291651520846
100.292247114279
100.291464967937
100.291293774075
100.291721853492
100.298632382948
100.298103169895
100.297940420189
100.29822541509
100.299848870287
100.301786786575
100.300268421665
100.299773043727
100.300148355127
100.296872192973
100.298143153104
100.296969610161
100.294942266088
100.294536828703
100.296230041911
100.297745003157
100.29673915753
100.29661746518
100.295529994749
100.294797203759
100.295463131021
100.295576953254
100.298573279098
100.300125817014
100.301542519156
100.302051567828
100.302152239327
100.302132169296
100.301913558247
100.301833238038
100.301585124646
100.301426776851
100.300959351961
100.300415559718
100.300167394417
100.300209608464
100.300594737928
100.301809302411
100.302272019076
100.302267442588
100.302339898382
100.302376716252
100.30254295764
100.302506993066
100.302433640106
100.302577499104
100.302571275491
100.30257633889
100.302378747862
100.302161948634
100.301699758108
100.30107675708
100.300269315408
100.299165054834
100.297930899444
100.296093890319
100.293759260321
100.290986030932
100.287552840533
100.281452477294
100.279961671282
100.263644857681
100.244983135551
100.167330252965
100.183101158249
100.201564586452
100.204886011243
100.201357386601
100.196489844705
100.207208592111
100.20370658064
100.198420117092
100.20946427907
100.205779530059
100.198924224967
100.208649830095
100.205274993543
100.198193279338
100.207456577488
100.204112545049
100.197073055291
100.206068444522
100.20278932203
100.195948479435
100.203992800846
100.201784233803
100.202327280782
100.201751749868
100.200507720278
100.200540105692
100.200770424725
100.200296951694
100.200278248227
100.200619104867
100.200137330999
100.199826928995
100.200364471077
100.20029082587
100.200013347037
100.200083367968
100.200263996773
100.200433989887
100.200906728166
100.200582553045
100.20026404844
100.199985633541
100.200551848098
100.200413665817
100.200088850376
100.19940368057
100.199342300688
100.199971028969
100.200352831214
100.200518281197
100.199963719689
100.200253009324
100.200577490231
100.200905168853
100.200425406651
100.20025549149
100.200081418514
100.200024753787
100.200293791975
100.200366429655
100.199822648136
100.200131082081
100.200614356241
100.200274034056
100.200305715578
100.200720965219
100.200506896397
100.200496976953
100.20175563866
100.202334489129
100.201792640392
100.204015277359
100.203219647159
100.204304165074
100.202621236348
100.201826331072
100.203477521338
100.203167556544
100.201684033033
100.201295240982
100.201571178397
100.199107559294
100.199919569978
100.200391953675
100.200484052255
100.200558193566
100.20029822068
100.199821804357
100.20030893251
100.199512080609
100.199531373835
100.200573730882
100.199609037938
100.201346806642
100.20088891372
100.200799446426
100.200505680793
100.200598827025
100.200456524861
100.200431785935
100.20047862225
100.200941593462
100.200282238294
100.200182519857
100.200150730057
100.200301821692
100.200831639869
100.200383982296
100.200392951377
100.200440801247
100.200557289764
100.200151810243
100.200302730485
100.200778930615
100.20152385114
100.200094953327
100.200104461905
100.19991594904
100.199932069
100.20014183575
100.200105518285
100.201528258566
100.200787045598
100.200316030937
100.200162179936
100.200558453804
100.200738493701
100.200918410519
100.200916389408
100.200736472004
100.200599485269
100.20064464232
100.200648553488
100.20060325398
100.200721165473
100.200389822252
100.200397312418
100.200444043306
100.200976535747
100.200153031797
100.200371794193
100.201838039421
100.201351764897
100.201527598112
100.201143132604
100.20233252803
100.201662966064
100.200872103959
100.201249531337
100.201503489038
100.201517560508
100.201228896188
100.200854656567
100.201660938205
100.202346323016
100.201143672865
100.201526152919
100.20134771689
100.201836065658
100.200874739996
100.202632420158
100.201924820197
100.201815989815
100.200774278796
100.200691703448
100.20003198376
100.201117676024
100.199757518897
100.200863895422
100.201447990826
100.200430134804
100.201676140304
100.20121946368
100.203136872366
100.204130044481
100.201067822075
100.195952087331
100.202800648938
100.206103481202
100.197066577451
100.204125674168
100.207489600355
100.198180574003
100.205283892113
100.208677212361
100.198876018457
100.2057587224
100.209499241454
100.198383681298
100.203681515288
100.206994136309
100.196459573728
100.201644623375
100.202182097881
100.199637863248
100.196718092157
100.19668833941
100.202016958549
100.199390245888
100.197270683266
100.193224535384
100.19812379653
100.198283488505
100.193540591433
100.186023982205
100.185510064487
100.164213395807
100.237331407292
100.236756351398
100.165157295315
100.168451286737
100.183521960703
100.201458123162
100.204736020645
100.193631396969
100.188369423886
100.193519209432
100.191577395272
100.197535276021
100.205926780656
100.201874699863
100.202057061754
100.206182839498
100.203055630539
100.202369110796
100.204987637805
100.202271742166
100.201699437982
100.203405023237
100.201169865936
100.200861485487
100.201861278169
100.199981440261
100.203808555783
100.202856927469
100.201106700694
100.201665935517
100.203026515422
100.201672030532
100.201283256005
100.200366346059
100.202564896865
100.202647844566
100.200178493373
100.204149547275
100.204673814114
100.201649806867
100.205014314633
100.206307848073
100.20269231061
100.206055957208
100.207261766015
100.203358266117
100.201195701448
100.18663656911
100.176586834062
100.177954622193
100.186701354495
100.184432842029
100.183423189868
100.191289111233
100.179751051759
100.182799586113
100.177037047365
100.176969430113
100.184788172788
100.229687823822
100.254513199165
100.231185554751
100.160482317702
100.161825112033
100.185857884818
100.152585852151
100.137231776168
100.205604178745
100.247591646211
100.270597672701
100.279821715605
100.285714144644
100.287921639896
100.28761627083
100.282964008674
100.275145267689
100.261566860582
100.268259524146
100.276840062976
100.284232823536
100.287808098817
100.291023177902
100.293650854357
100.293538573716
100.296495724374
100.298153202138
100.297498356226
100.297374993346
100.297384007537
100.297609828692
100.300544918778
100.30097333634
100.301830998392
100.302243732558
100.302193050198
100.302352164364
100.302257366543
100.302274960752
100.302464733755
100.302414537647
100.302504454812
100.302500338437
100.302478017216
100.302305187086
100.302078260453
100.301652158889
100.301082667644
100.300282085294
100.299259039412
100.298097032375
100.29632970002
100.294385164378
100.292049475555
100.289216576124
100.285036580296
100.280598389939
100.274111178288
100.254135069816
100.228750111646
100.183912052754
100.176617725293
100.176572329343
100.182444739949
100.193578797222
100.187906990554
100.192525099188
100.191337329539
100.197490860383
100.205990796234
100.201808377362
100.201966805512
100.206225765589
100.20309221465
100.202374103932
100.205025804235
100.202271883605
100.201699675719
100.203440558506
100.201164062407
100.200862782024
100.201872058348
100.199966818773
100.201782867283
100.204121034202
100.203152129616
100.201684113813
100.201288794127
100.201596630327
100.201830262245
100.203473184966
100.203211005607
100.204318147888
100.202625154365
100.202233784564
100.202929457386
100.201322930472
100.20078519357
100.202151409379
100.20379960461
100.20284690754
100.201106382443
100.201679884825
100.200428847231
100.201452831623
100.200870954241
100.19976308026
100.201126470312
100.200041015015
100.200695369818
100.200778309323
100.201833859051
100.201952194507
100.202655130229
100.200887078532
100.200219737905
100.200863908046
100.200221119504
100.200784181118
100.200454758054
100.200870583752
100.20149419795
100.201051282722
100.20051420732
100.200560213373
100.202964876223
100.205051066652
100.202683784231
100.201809831951
100.201989776943
100.202394511531
100.202163929171
100.202650747684
100.202639302384
100.202135319202
100.20238103241
100.201980470063
100.202667240244
100.205066283368
100.202974518308
100.202967850106
100.203823806064
100.202875371168
100.201971355628
100.201902618069
100.202297772098
100.201370813441
100.200546116083
100.201969330893
100.201294601274
100.200066189294
100.202524067552
100.202878653653
100.202097423074
100.201894305287
100.202643729949
100.204296830297
100.203546459561
100.202482695384
100.203321917649
100.206196285483
100.205486054557
100.202220785958
100.202798918454
100.20782062749
100.208317253534
100.201475574319
100.189287444151
100.18323335265
100.177420072651
100.180664698054
100.181521332622
100.185170388989
100.18615485669
100.182392477135
100.174405627542
100.174008248371
100.17454636393
100.170588837677
100.159588856048
100.162505627374
100.178445199862
100.175884210615
100.177303397982
100.196264197987
100.198157110188
100.210416551138
100.228116430458
100.217488310812
100.222691194953
100.242621998048
100.261867492734
100.244147494887
100.264870338126
100.275893646602
100.280893752506
100.274515482054
100.273698648621
100.281253271842
100.286971585696
100.290601725459
100.293181642797
100.29231283982
100.291704968184
100.291304924675
100.297298567562
100.297712927472
100.298137214986
100.296634159193
100.297219167707
100.299113386012
100.297274528295
100.299084811645
100.299734063743
100.301497709552
100.301546418135
100.301173780121
100.301674295581
100.299111616257
100.300021975346
100.300009692582
100.299306187458
100.299909027206
100.299311352632
100.299337854531
100.299250354533
100.299265383172
100.299367960498
100.299700048393
100.299785483953
100.300011529507
100.300191821907
100.300093670744
100.299648912098
100.299080691614
100.298917337486
100.299213282438
100.29937158902
100.299461024966
100.299357444182
100.299349635955
100.299387837694
100.299285965568
100.299298128592
100.299160645816
100.299082298246
100.298467055056
100.29871238176
100.29883726117
100.299176260629
100.299470239727
100.299493180695
100.299238429219
100.299000220816
100.299257222962
100.2994455439
100.299454319806
100.299214384997
100.299593689878
100.299339157057
100.299225342683
100.299941242832
100.300575733295
100.300107164099
100.300119032895
100.299754812445
100.29933115934
100.299130393878
100.299780887926
100.300340057317
100.300304251024
100.299781257117
100.300053169458
100.300491424269
100.300433895205
100.300318587701
100.299827849954
100.299887863509
100.30042069914
100.300473004652