/*--------------------------------*- C++ -*----------------------------------*\
| =========                 |                                                 |
| \\      /  F ield         | OpenFOAM: The Open Source CFD Toolbox           |
|  \\    /   O peration     | Version:  v1612+                                |
|   \\  /    A nd           | Web:      www.OpenFOAM.com                      |
|    \\/     M anipulation  |                                                 |
\*---------------------------------------------------------------------------*/
FoamFile
{
    version     2.0;
    format      ascii;
    class       volScalarField;
    location    "1.6";
    object      p;
}
// * * * * * * * * * * * * * * * * * * * * * * * * * * * * * * * * * * * * * //

dimensions      [0 2 -2 0 0 0 0];

internalField   nonuniform List<scalar> 
74874
(
100.129074179723
100.1314583633
100.131931734099
100.13052152277
100.136036719565
100.136623109937
100.13346524831
100.135073579617
100.137590603171
100.137664255006
100.135551787428
100.134015688603
100.13729937088
100.13674935424
100.137760729972
100.137944136238
100.1373255079
100.134186797555
100.131277791939
100.13070821171
100.13218262707
100.133499774709
100.131981233405
100.131631581581
100.137072819204
100.137208737488
100.132608048799
100.132873671888
100.134036418248
100.132215102297
100.132352609332
100.133850784462
100.132855574832
100.132555407876
100.137141622624
100.136643805041
100.131541740483
100.13195792268
100.133399942245
100.131820657892
100.130389601057
100.130915055275
100.133821577634
100.136967946373
100.137415482527
100.137173354656
100.131030301859
100.130289941646
100.129895889358
100.12932976681
100.128317007747
100.128322317974
100.127607377522
100.127955038851
100.128222013933
100.128778801198
100.129979552069
100.129468030784
100.127860419704
100.127573099984
100.127306041237
100.126852940518
100.126897296036
100.127435181148
100.127596174838
100.12793185877
100.129484846238
100.130018571557
100.12889436421
100.128377499029
100.128245467057
100.127907869572
100.128569585395
100.128579542024
100.129567839284
100.130184590912
100.130661768486
100.131440169215
100.130984339358
100.132554664382
100.132163140801
100.133305715074
100.133565085717
100.133349952531
100.132782810903
100.13230157917
100.131804783457
100.128648654236
100.126973630287
100.129004559454
100.127965945033
100.124273971167
100.125222918246
100.127834875729
100.127532468177
100.125789016395
100.124030665294
100.125612992769
100.127175700463
100.126526231561
100.125850199269
100.125434169844
100.123614068491
100.12254929511
100.123745996056
100.123690430099
100.122428878232
100.123567135446
100.125546985984
100.126029839586
100.126376304174
100.127384532044
100.126157491751
100.124510818194
100.126153641865
100.127792640951
100.128069432523
100.125398959224
100.124491448381
100.128375070042
100.129428906578
100.127489510846
100.129468668191
100.133030526766
100.133254053284
100.130842792116
100.130606694226
100.124187554559
100.1323380144
100.131931359939
100.126500861316
100.124026719528
100.12866461235
100.129037213668
100.123366373788
100.123600242181
100.126499609612
100.124906276791
100.123733717197
100.121738139413
100.12462491656
100.127200739121
100.123440134795
100.122883260965
100.12512212178
100.121497143635
100.119149330922
100.121333800336
100.121298970426
100.119087477634
100.121469541754
100.125233342342
100.123255604342
100.12410382892
100.128165762917
100.125608429873
100.122316460907
100.12414973757
100.125210436741
100.126785109153
100.123809936222
100.123529051902
100.129612462606
100.129135210517
100.124727417722
100.127757683297
100.134548955392
100.135427221109
100.125122986745
100.152258523104
100.150216524903
100.122797136948
100.122660281524
100.127987749535
100.117528799505
100.119062325504
100.130114822328
100.126488152596
100.123635745418
100.123565895625
100.128471886843
100.118045487043
100.119190594686
100.119448541104
100.119200773459
100.126024408753
100.122288695647
100.122253008464
100.125886848621
100.119329346064
100.119597684076
100.119366403381
100.117958236141
100.116409032424
100.119350225022
100.117106978456
100.10846832143
100.111071218337
100.082845242226
100.078957082763
100.079320557996
100.085090213844
100.11631666364
100.110634132679
100.093590505429
100.086600724138
100.08028000476
100.081034332502
100.086010732093
100.082993297944
100.083959043906
100.087256040607
100.087243401541
100.083910511044
100.082976760348
100.08564665109
100.084827200373
100.078622414393
100.077351875789
100.081880615444
100.079923185413
100.079754296032
100.078754049108
100.078779479243
100.085004612123
100.084209956826
100.084525431642
100.084911013351
100.080176908344
100.080749909677
100.082097841011
100.082073330003
100.080731682849
100.079966774379
100.080957872396
100.080183458898
100.078702275645
100.078735039301
100.085530527943
100.08459286684
100.084254985435
100.085022816378
100.08630119748
100.086244533071
100.085625672378
100.085804423753
100.086058238835
100.086091003875
100.085184012817
100.084901871917
100.084892996122
100.085074675024
100.084715116637
100.084485491365
100.084143178676
100.085067223765
100.086177471197
100.08648734667
100.085743011862
100.085638112386
100.083912654095
100.084200983473
100.084181821026
100.083976216922
100.084130017132
100.084129404725
100.084158633399
100.0840221725
100.085739714819
100.085713278554
100.085956391118
100.085878043521
100.085712920021
100.085552184952
100.083847467014
100.084032943304
100.084173836404
100.083888989813
100.081566887829
100.081618549801
100.081731307757
100.081759387708
100.081674148821
100.081791205564
100.081741505066
100.081791208304
100.08174284301
100.081728550673
100.084002061763
100.08407498111
100.084004971948
100.084008550042
100.08168384529
100.081533119653
100.081614103708
100.08162894898
100.07962899148
100.079617325807
100.079669401777
100.079728523897
100.079787671662
100.079712657717
100.079799511409
100.079768012823
100.079816652906
100.07978166929
100.079769930397
100.079791183046
100.081752861346
100.081657729481
100.079702781068
100.079720114251
100.07960877047
100.079680344697
100.077945258198
100.07790400844
100.077852250351
100.077883852651
100.077926966187
100.078005186303
100.077948547098
100.078029227247
100.078007946498
100.078056139077
100.078037396932
100.078033033551
100.078043134665
100.077958396222
100.077973257999
100.077894398629
100.076092129466
100.076094231091
100.076051746286
100.075950742227
100.075968342399
100.07601372066
100.076117292527
100.07608757976
100.076179312564
100.076159060953
100.076228731119
100.076241894892
100.076248326281
100.076244893223
100.076146798971
100.076158940162
100.074080850357
100.074003479108
100.073971403612
100.073919163466
100.073672456087
100.073683977344
100.073831584965
100.073942312665
100.073921433519
100.074040485287
100.074041467248
100.074146353434
100.074199801106
100.074254939202
100.074240937216
100.074126314337
100.071564282404
100.071479820198
100.071362396939
100.071335931388
100.071274167102
100.070677791458
100.070643074819
100.071070547037
100.071173074052
100.071187112588
100.071339836564
100.071408670474
100.071600634318
100.071663908523
100.071743590393
100.071687045019
100.067862557649
100.067685615695
100.067682344301
100.067467681848
100.06727102591
100.067469945388
100.066234133953
100.066090177732
100.067019688361
100.066900624354
100.06706204742
100.067329162187
100.067371662757
100.067734922982
100.067914164749
100.06796969375
100.061897327385
100.061740084439
100.061430514737
100.06155130682
100.061403460909
100.060518703615
100.06140160652
100.058878315609
100.058753227427
100.060713793012
100.059817645042
100.060534684869
100.060805337065
100.060803627701
100.06134323102
100.061728862128
100.039430213355
100.039639968771
100.036377405461
100.03608724341
100.039716064987
100.040294070939
100.035532288311
100.03600095019
100.035917724588
100.035824926592
100.035374635657
100.03427445699
100.039115770397
100.038781583822
100.03553104585
100.035969090779
100.041799103466
100.04460127658
100.044680389992
100.042538374707
100.042319776811
100.04396036087
100.046182865649
100.039971171053
100.026800415327
100.069179263456
100.104824039336
100.104500993089
100.068039157676
100.035238924895
100.035454335916
100.174074656385
100.298591835733
100.224050973417
100.222084573648
100.175275163245
100.15991192822
100.145296751876
100.03896369528
100.045501526977
100.04369317384
100.041713645169
100.151085679992
100.151742842624
100.190533254761
100.129478794784
100.130215915795
100.191902194167
100.153011650088
100.151823686067
100.188196612423
100.125150232531
100.122923812964
100.179043946673
100.145631041056
100.16283429542
100.177859227746
100.297870848731
100.367932144398
100.346273109949
100.342994992594
100.361771289956
100.340084040542
100.293639994642
100.459073256528
100.485317579862
100.492388947571
100.526282985201
100.596438652203
100.600642923726
100.521410946797
100.454427567342
100.387999463763
100.350080173752
100.374063226264
100.372575147606
100.369502233474
100.369599379106
100.370516154693
100.371497516208
100.372765567358
100.374580187007
100.37693440215
100.379675052859
100.38253986551
100.385076117776
100.386686400203
100.385461315309
100.383766634739
100.381760010054
100.379566864428
100.377356017425
100.375137925206
100.372910365741
100.37080305804
100.368959362941
100.367456660694
100.366290783335
100.365374390244
100.364632192168
100.364039935967
100.363590570965
100.363295557204
100.363190095126
100.363309174445
100.363710481706
100.364624581542
100.366228742075
100.368133889145
100.369998442694
100.371748844094
100.372856335148
100.372759403411
100.372696571794
100.372055863745
100.371491564929
100.369656883935
100.3677655655
100.365999577376
100.364595057378
100.363805846715
100.363415190499
100.363265532492
100.363332821678
100.363598562325
100.364028918436
100.364596970737
100.365299892325
100.366164666608
100.367253538922
100.368654861455
100.370381228228
100.372372688537
100.374489733246
100.376576466805
100.378598734644
100.380546099132
100.382297923444
100.383797090319
100.384892464781
100.385433030261
100.387292102721
100.388554258258
100.387909602906
100.3866049325
100.384782923534
100.382603826385
100.380229940753
100.377852526836
100.375514251271
100.373220306545
100.371053680298
100.369144793273
100.367573169187
100.366347808682
100.365391629674
100.364632854887
100.364033974877
100.363595125617
100.363308015096
100.363179929148
100.363271105447
100.36370513331
100.36473341281
100.366518835274
100.368531766778
100.370402963515
100.372059020755
100.373069687021
100.372969632363
100.373299002139
100.373533453257
100.373525912344
100.373721163978
100.373619446231
100.373802771766
100.373703625026
100.373892360529
100.373829383334
100.373879653253
100.373729964721
100.373670346082
100.373537329671
100.373378905973
100.37339593896
100.373316438934
100.373567714967
100.373735241871
100.373698290097
100.373768154134
100.373608142668
100.373700569972
100.373525676682
100.373631467689
100.373437827046
100.373437595143
100.373207473455
100.373078999666
100.37332540953
100.373338559432
100.373526271851
100.373433744122
100.373593975143
100.373533389213
100.373662911115
100.373576828482
100.373562679215
100.373394549172
100.373357698324
100.373285132697
100.373336275003
100.373244553829
100.373381882782
100.373484949939
100.373515387154
100.373410327422
100.373494039918
100.373345019111
100.373429064127
100.373247716147
100.373224447266
100.372954917517
100.372782455327
100.373053375589
100.373104982126
100.373293511771
100.373249071115
100.37334998602
100.373388570053
100.373285966873
100.373480688126
100.373549029124
100.373616308695
100.373716723877
100.373831136325
100.373960564014
100.373829490305
100.374044283524
100.373990306507
100.374058932399
100.373914501862
100.373874532624
100.37368699562
100.373409609183
100.373115823226
100.372918502527
100.372732831359
100.372538958076
100.372373969233
100.372439709147
100.372555946269
100.372800048691
100.372980541858
100.373180816063
100.373487917898
100.373304986794
100.373134617341
100.373045519552
100.373156614177
100.373103294995
100.372771069671
100.372509221922
100.372413697301
100.37230354796
100.372445868534
100.372481249935
100.372699388782
100.373026736862
100.373147413697
100.373233409228
100.373335233676
100.373397876399
100.373492335094
100.373577019583
100.373657838121
100.373767228495
100.373906960866
100.374055968657
100.374114356996
100.374190227817
100.374025662375
100.374009876265
100.373773797054
100.373596884791
100.373337149168
100.372921864948
100.372498024659
100.372138521124
100.371989280294
100.371734717064
100.371714007912
100.372008788684
100.372362466085
100.372752485302
100.372502598658
100.372173972963
100.371875905824
100.371662351678
100.371452465086
100.371227114386
100.371066492327
100.371210991571
100.371389478709
100.371679527355
100.371873353698
100.371975833615
100.371732347133
100.371898903878
100.372305790806
100.372284825215
100.3726960064
100.372898385046
100.373242340724
100.373415341625
100.373443038483
100.373533340123
100.37362487382
100.3737221213
100.3736303137
100.373831717263
100.37372724261
100.373934017855
100.374052611693
100.373948817976
100.374166522878
100.374312431344
100.374302864152
100.374395778726
100.374301461278
100.37408949105
100.37411544393
100.374072805591
100.374229892683
100.374176843902
100.374294975691
100.374205549097
100.374228666532
100.37406894286
100.374181775578
100.374429243185
100.374418618525
100.374520731197
100.374481033183
100.374332554623
100.374277002512
100.373856339048
100.373686017904
100.373538157842
100.373173351663
100.372720548598
100.372342590217
100.371747250147
100.371526076295
100.371274310395
100.371062283179
100.370860289352
100.370653662158
100.370352843471
100.370031058031
100.369934274382
100.370237678854
100.370648852199
100.370900248456
100.371112213397
100.371329343549
100.371514607479
100.371253717848
100.371404576735
100.37124510742
100.371556421155
100.372058710565
100.373212084259
100.373511072942
100.37351508602
100.373748877273
100.373739951089
100.373937480596
100.373833383935
100.373953397669
100.374171022119
100.37427999031
100.374399606842
100.374312684361
100.374564353211
100.374563421314
100.374668333602
100.374620271161
100.374459805
100.374404021033
100.374030269509
100.373844127967
100.373487560408
100.373080922829
100.372713445467
100.372525938984
100.371950544909
100.371753480132
100.371567103687
100.37142983826
100.371426749964
100.371138591092
100.37087100139
100.370682077844
100.370329981958
100.370545157092
100.370870671256
100.37115050899
100.371316092494
100.371046601289
100.370778945505
100.370409863775
100.370431234511
100.370006176025
100.369600552337
100.369278060198
100.369018477999
100.368801958619
100.369051506269
100.369412701603
100.369754948821
100.370107938244
100.369862171459
100.370031148441
100.370164046279
100.370401233101
100.370501237416
100.371115126283
100.371718342146
100.372965282559
100.373286201124
100.373413080637
100.373417069057
100.373644843267
100.373660260928
100.373761780791
100.373889493318
100.373874751907
100.373858791153
100.374061811365
100.374171259484
100.374064387085
100.374175207123
100.374279029621
100.374495108599
100.37441748071
100.374666468237
100.374663397576
100.374779209724
100.374726161239
100.374618388403
100.374513710068
100.37420598788
100.373990582046
100.373589344608
100.373169925168
100.372833214011
100.372292937795
100.37214404195
100.371979059675
100.371808501249
100.371686794073
100.371703882652
100.371574476537
100.371797882098
100.371510580055
100.371214107232
100.370917789855
100.370592066614
100.3702336162
100.369825692018
100.369427886823
100.368923816484
100.369225901064
100.369722479082
100.370173581602
100.370418205522
100.370686644829
100.370986312482
100.371284690226
100.371292824396
100.371158437241
100.37079507563
100.370074672686
100.370082532099
100.369915215362
100.369328311712
100.368816972119
100.36746061972
100.367953639115
100.368721933642
100.369443281945
100.37012918857
100.370432539757
100.370323692859
100.369895248529
100.369193147833
100.368407486654
100.367319257017
100.366226271469
100.365548267474
100.363483082561
100.362121885831
100.363804603264
100.365003221401
100.365963501056
100.36713030866
100.36701058488
100.36559368643
100.364629050362
100.363141918888
100.361496412283
100.360656634814
100.360504971098
100.361769082206
100.363618900589
100.36494585625
100.365662704288
100.366755607547
100.367381650034
100.368225305516
100.369261212847
100.369988377702
100.370708577298
100.371321073424
100.370676240803
100.370940083721
100.370734961386
100.371755380121
100.371250594079
100.370682319317
100.370043859098
100.369372140456
100.368672180145
100.367862955465
100.366596245084
100.365914742199
100.364690718209
100.364591325631
100.364134203879
100.362637159072
100.362015492879
100.361017640355
100.355749881286
100.356999875281
100.35720558869
100.35931187454
100.36025376939
100.363877735827
100.36499046957
100.367957132784
100.368709113311
100.37079568721
100.369977042061
100.368864923569
100.368803687788
100.368802735628
100.368869842688
100.369297307347
100.368554838662
100.366950022819
100.366582945689
100.366510713447
100.366624097837
100.368689054778
100.370724202584
100.370685772918
100.371504618992
100.372047108408
100.372073792939
100.372501351155
100.372243978563
100.372435396705
100.372508896653
100.3725895864
100.372541620516
100.372444206967
100.372266583422
100.371743133977
100.371500467446
100.371686155857
100.371797661909
100.371705849694
100.371908981908
100.371915112389
100.372042227386
100.372366173169
100.372400492416
100.372581380626
100.37223640669
100.37247803831
100.3725435395
100.372158167015
100.372370598405
100.372022843841
100.372001370762
100.371494921085
100.371366268591
100.371892541814
100.371933445932
100.372244428594
100.372106926248
100.372410728925
100.372199213662
100.37243979371
100.372262788626
100.372232411352
100.372125008793
100.372209818284
100.372321883886
100.372192156603
100.372082594052
100.37195238319
100.371627778756
100.371148891011
100.370717995858
100.37105847199
100.371168651102
100.371472212409
100.371445144595
100.371852264485
100.371978107441
100.372145373311
100.371855179434
100.372088382278
100.37218706589
100.371982118221
100.372099547736
100.371703573613
100.37178181799
100.371504306938
100.370840754579
100.370621073348
100.369790158805
100.369953381163
100.370060619157
100.371003721349
100.371507578482
100.371545711641
100.371946113183
100.371700470218
100.372099358113
100.372009356073
100.371800899853
100.372013593683
100.371838184554
100.371632190166
100.371490044606
100.371701786676
100.371791684686
100.371919396685
100.371816759375
100.371706038343
100.371500262577
100.371149281408
100.370493291502
100.369754918312
100.37036215264
100.370529301574
100.370960953142
100.370984485031
100.371418000405
100.371625046847
100.371755911378
100.371470637384
100.371759898366
100.371801592515
100.371664974184
100.371709306315
100.371852615001
100.371435700851
100.37149914979
100.371105748648
100.370322001961
100.370387737896
100.371167514537
100.371212845639
100.371767005462
100.371514136316
100.371644862765
100.371717640913
100.371720023483
100.371772159837
100.371809277462
100.371977312097
100.370284099058
100.371281587701
100.371341715395
100.371603244759
100.372124012981
100.372286275395
100.372281598935
100.372561860163
100.372520816407
100.372643807306
100.372750580516
100.372619034179
100.372728931717
100.372554921819
100.372551301584
100.372635849109
100.372676304036
100.372725732261
100.372844737151
100.372869933851
100.372852590916
100.372540882995
100.372455196444
100.372547677835
100.372366468551
100.371985963993
100.371653315048
100.370925145647
100.370287029097
100.369661407088
100.369943553001
100.370203554983
100.370174390519
100.370120861335
100.370532310132
100.370660564031
100.370802339042
100.37075359297
100.370361267532
100.370748621381
100.37103033339
100.371312639352
100.371760470096
100.37206212657
100.372223861013
100.372276432474
100.372331499334
100.372368596205
100.372427307047
100.372670515718
100.372610659535
100.372840716145
100.372736349686
100.372945139898
100.37311530815
100.373004624698
100.372975084407
100.372662493283
100.372525305874
100.372237713969
100.371773653168
100.371271692124
100.371220121274
100.371448361216
100.371552780043
100.372163814248
100.371730688349
100.371886213187
100.372268803822
100.372415306287
100.372646825946
100.372666734484
100.37279601562
100.372694373219
100.373000004344
100.372867505222
100.372912592394
100.373198490758
100.373099500101
100.373056110787
100.372873058953
100.372694035319
100.372956910139
100.373043445411
100.373142259911
100.373232731128
100.373273769162
100.373230873733
100.373101301543
100.373136905264
100.372890243846
100.372871887133
100.372698898289
100.37231920444
100.372318797145
100.371785650252
100.371339044572
100.371250145434
100.370956637906
100.370855522197
100.370809872821
100.3707364595
100.371634837497
100.3721833238
100.372257578539
100.37249158207
100.372506252598
100.37280327561
100.372962849944
100.372742171553
100.37314813189
100.373125903345
100.373242524151
100.373323377007
100.373423628266
100.373495298637
100.373584962307
100.373669651534
100.373790006344
100.373889688628
100.37401772947
100.374121130511
100.374242318443
100.374337464748
100.374440633785
100.374377838084
100.374580911957
100.374508804463
100.374753029446
100.374761183763
100.374892181643
100.374810044977
100.374776049613
100.374667191841
100.374648118348
100.374429137047
100.374145049506
100.373713493364
100.373306789944
100.372991608087
100.372476696178
100.372360612429
100.372200772463
100.372147756939
100.372141096418
100.371898639139
100.371788840988
100.372020576128
100.372025968249
100.37208246685
100.372162082877
100.371922941273
100.371683419235
100.37143164364
100.37114287547
100.370819920605
100.370352293179
100.370634872657
100.371025499651
100.371308163878
100.371573136058
100.37183205173
100.371786444202
100.371505286458
100.371226724034
100.370934801856
100.370547558508
100.37003107196
100.370371008661
100.369874945135
100.36935479672
100.368870634459
100.368457968013
100.367785440287
100.368186116184
100.368776158538
100.369149720928
100.369604828449
100.36956828521
100.369437898892
100.369157094719
100.369051567234
100.36905719895
100.369267082792
100.368858190283
100.369568300824
100.371608316386
100.371994268137
100.372381690176
100.372406038891
100.373322529385
100.373204706305
100.373651166921
100.373763759824
100.373985340089
100.373974701096
100.374092588885
100.374280834735
100.374379228536
100.374479857039
100.374551521975
100.374465797391
100.374650664833
100.374603284862
100.374824192668
100.374834527226
100.374946586507
100.374855615943
100.37483534291
100.374720222884
100.374471785604
100.374262555302
100.373835209279
100.373492523074
100.373166740922
100.372696046123
100.372549796581
100.372253654751
100.372362592221
100.372169718778
100.372303369398
100.372309146107
100.372445746249
100.372219953327
100.372234633364
100.372347062185
100.372413231676
100.372368215217
100.372448407374
100.372204808815
100.371976763829
100.371733628303
100.3714523951
100.371148513121
100.370798075306
100.370349670359
100.369930825046
100.369513835867
100.36991129646
100.370359154522
100.370640789649
100.371011935513
100.371324444049
100.371600523105
100.371851646861
100.372103086213
100.372117873514
100.372033883571
100.371568486142
100.371971264034
100.371445185598
100.370982811262
100.371449149368
100.371004140772
100.371208736897
100.370859108963
100.372140343275
100.371105353951
100.370453386106
100.369639651261
100.368789676389
100.368075993723
100.367535579499
100.367072470011
100.366429224555
100.36567002885
100.36425351359
100.36409747742
100.363438546679
100.363097529911
100.3618631744
100.360817155794
100.360405682742
100.360191065605
100.354064491731
100.354695479947
100.353777705368
100.35435154133
100.354138224792
100.355687774309
100.356511514607
100.355639832937
100.354288653861
100.355767795772
100.35525073527
100.355619531007
100.356448473182
100.356543446018
100.355493824852
100.355639275288
100.358813880743
100.354251916539
100.35393445266
100.355948878642
100.356002729489
100.356394296933
100.357844607371
100.359235024087
100.360143030106
100.359986029332
100.358165653119
100.359135519412
100.360418475226
100.359342364992
100.357870880006
100.357973075301
100.359826143796
100.361278861638
100.3632053547
100.364697921496
100.365384169368
100.363727875006
100.36507463873
100.36656129612
100.367022771015
100.368452395408
100.36772099978
100.368853707382
100.369763904782
100.370569730762
100.371195474347
100.371761874671
100.371909631158
100.37217309499
100.371985970746
100.371220401527
100.371598114178
100.371447507335
100.372355212776
100.371530420199
100.369029643325
100.368499710108
100.367750669153
100.366932431564
100.366185571966
100.365684617451
100.36531531267
100.365026767294
100.36473891623
100.363800514819
100.363475181381
100.363543439445
100.363618150785
100.36372440279
100.363380808602
100.363101762436
100.364222598302
100.364595082947
100.36554463931
100.366969889015
100.368945917912
100.369361458222
100.367385584107
100.365774999895
100.364593521923
100.363942195902
100.363585181821
100.36342918938
100.363456978862
100.363672414849
100.36405590139
100.364573065651
100.365206294354
100.365979334018
100.366942983991
100.368180303822
100.369734186617
100.371578701788
100.373598308024
100.375596448565
100.37742213451
100.379063414056
100.380517345373
100.381771272095
100.382707133519
100.383174965205
100.383140304432
100.385407664916
100.387276877913
100.388546881868
100.389115501934
100.389118453772
100.388454360972
100.387108829104
100.385218697933
100.382953750344
100.380480126171
100.378004332486
100.37559398034
100.373258830647
100.371059306874
100.369124617136
100.367529972341
100.366282132025
100.365316764331
100.364558319201
100.363974719432
100.363567927919
100.363311977237
100.363199418205
100.363314915314
100.363844748869
100.365024048239
100.366949495608
100.3690258799
100.370855815891
100.371353372147
100.372776350194
100.37360663238
100.373478528095
100.373757581006
100.37348589651
100.373999400472
100.37412304777
100.374107825165
100.374215437216
100.374205810181
100.374311196631
100.374409361111
100.374489303246
100.374616812316
100.374542879079
100.374712814733
100.374683837404
100.374876988311
100.374895047765
100.374990256327
100.3749173908
100.374894951463
100.37478594597
100.374539882625
100.374344143519
100.373837962849
100.373631591073
100.373400905059
100.373241764162
100.372978099468
100.372797698085
100.372515979993
100.372554040061
100.372505389985
100.372537049665
100.372643511759
100.372568372918
100.372796826477
100.372631852429
100.372377504447
100.372568823256
100.372608612462
100.372641326626
100.372715411497
100.37251969928
100.37248254063
100.372151600094
100.371897128559
100.371645541963
100.371339978843
100.371015036105
100.370628083594
100.370356511974
100.37057181094
100.370968624081
100.371289976527
100.371600704276
100.371850949464
100.372105473012
100.372372354756
100.372360295665
100.372428085611
100.372340801908
100.372156461397
100.372335670523
100.372137610686
100.372386766902
100.371921895771
100.372360617221
100.37196467855
100.37163669734
100.371879040602
100.371995119967
100.371803763017
100.372546299997
100.371897752165
100.369540862011
100.367656008761
100.366327723225
100.365617371717
100.365070332917
100.364555082379
100.364228578548
100.363930750579
100.363767152162
100.363599129925
100.363483194449
100.363364812274
100.363231635091
100.363240478339
100.363035670111
100.363396643628
100.363514237789
100.363690992455
100.363557010429
100.363504125059
100.363699610884
100.363861905061
100.36393493236
100.363488992023
100.363853991576
100.363580838607
100.363275466537
100.362384952173
100.36108348182
100.361009488079
100.360015407276
100.359911604274
100.354518465724
100.355139208926
100.354976665097
100.356311541668
100.356293240963
100.357763048125
100.358655508254
100.357871313138
100.357107391898
100.357620656287
100.357983113597
100.357989462942
100.358346542464
100.358798928829
100.357911778133
100.360552416957
100.360390809365
100.358641874458
100.360501756572
100.360538346621
100.356860275338
100.356672622462
100.355323927426
100.358776552203
100.361174632339
100.364327776474
100.367066746181
100.368516835074
100.369131424803
100.370244628393
100.370970182042
100.371165855488
100.37110704177
100.371544945379
100.371392380852
100.371638002496
100.371640145833
100.371417468295
100.371565853344
100.371286873235
100.370987970016
100.371305336359
100.371474552297
100.371379409886
100.371103741894
100.370682519797
100.370065520947
100.370777460582
100.370819136
100.371197798538
100.371157666998
100.371393392124
100.371600591881
100.371614522026
100.371349666524
100.371602885376
100.371650991187
100.371245697651
100.371444025561
100.371554700223
100.371107168639
100.371121244623
100.370594625623
100.3697151632
100.368611859543
100.368150142139
100.366310708798
100.367900165389
100.367751387633
100.368939325772
100.369863194727
100.37078697912
100.371225206962
100.371207883998
100.371581124244
100.37141656883
100.371792485611
100.371600232847
100.371608095276
100.371652498957
100.371597062175
100.371552489563
100.37143180115
100.370297384922
100.37119019863
100.371380960162
100.37037641496
100.367779256624
100.368983040663
100.369293530618
100.370612044386
100.371279714688
100.371320541825
100.370753040189
100.368161781963
100.369544950235
100.370004411359
100.370934531436
100.371383771618
100.371053258948
100.370813339455
100.370630996257
100.37016726004
100.368914334379
100.369902223353
100.370981295576
100.371054716725
100.371123386778
100.369524964036
100.370318435779
100.370520910462
100.371243417714
100.371734119916
100.371843110099
100.371872664211
100.371945751181