/*--------------------------------*- C++ -*----------------------------------*\
| =========                 |                                                 |
| \\      /  F ield         | OpenFOAM: The Open Source CFD Toolbox           |
|  \\    /   O peration     | Version:  v1612+                                |
|   \\  /    A nd           | Web:      www.OpenFOAM.com                      |
|    \\/     M anipulation  |                                                 |
\*---------------------------------------------------------------------------*/
FoamFile
{
    version     2.0;
    format      ascii;
    class       volScalarField;
    location    "0.9";
    object      p;
}
// * * * * * * * * * * * * * * * * * * * * * * * * * * * * * * * * * * * * * //

dimensions      [0 2 -2 0 0 0 0];

internalField   nonuniform List<scalar> 
74874
(
100.129074095706
100.131458279207
100.131931650248
100.130521439161
100.136036636206
100.136623026374
100.133465164438
100.135073495498
100.137590518993
100.13766417046
100.135551702421
100.134015603291
100.137299285301
100.136749268442
100.137760643968
100.137944050015
100.137325421549
100.134186711073
100.131277705283
100.130708125025
100.132182540455
100.133499688297
100.131981147121
100.131631495419
100.137072733423
100.137208651972
100.132607963497
100.132873586895
100.134036333551
100.132215017857
100.132352525211
100.133850700709
100.132855491366
100.13255532466
100.137141539789
100.136643722423
100.131541657967
100.131957840338
100.133399860014
100.131820575642
100.130389518758
100.130914972854
100.133821495121
100.136967863675
100.137415399625
100.137173271552
100.131030218565
100.130289858635
100.129895806583
100.129329684205
100.12831692527
100.128322235657
100.127607295243
100.127954956595
100.128221931557
100.128778718604
100.129979469365
100.129467947836
100.127860336369
100.127573016344
100.127305957357
100.126852856224
100.126897211453
100.127435096291
100.127596089692
100.127931773227
100.129484760437
100.130018485425
100.128894277708
100.128377412428
100.128245380307
100.127907782645
100.128569498449
100.128579455099
100.129567752461
100.130184504151
100.130661681901
100.131440082855
100.130984253291
100.132554578594
100.132163055338
100.133305629919
100.133565000892
100.133349868007
100.13278272659
100.13230149428
100.131804699062
100.128648570017
100.12697354629
100.129004475765
100.12796586169
100.124273888119
100.125222835386
100.127834793032
100.127532385619
100.125788933876
100.124030582748
100.125612910111
100.127175617593
100.126526148441
100.12585011586
100.12543408608
100.123613984414
100.122549210764
100.123745911348
100.123690344969
100.122428792741
100.123567049534
100.125546899657
100.126029752779
100.126376216975
100.127384444585
100.12615740415
100.124510730513
100.12615355408
100.127792553116
100.128069344756
100.125398871464
100.124491360603
100.128374982324
100.129428819185
100.127489423904
100.12946858164
100.133030440776
100.133253967668
100.130842706851
100.130606609244
100.124187469005
100.132337929063
100.131931274493
100.126500776529
100.124026635037
100.12866452811
100.129037130012
100.123366290518
100.123600159045
100.126499526571
100.124906193967
100.123733634445
100.121738056639
100.12462483364
100.127200656159
100.123440051504
100.122883177222
100.125122037553
100.121497059049
100.119149246097
100.121333715066
100.121298884678
100.119087391486
100.121469454855
100.125233254819
100.123255516135
100.124103740155
100.128165673768
100.12560834082
100.122316372034
100.124149648424
100.1252103475
100.12678502018
100.123809847193
100.123528962652
100.129612372904
100.129135121443
100.124727329635
100.127757595727
100.134548868399
100.13542713477
100.125122900976
100.152258436529
100.150216438892
100.122797050155
100.122660195544
100.127987664369
100.117528713663
100.11906224172
100.130114739106
100.126488069639
100.123635662633
100.123565812889
100.128471804068
100.118045404447
100.119190511561
100.11944845631
100.119200687219
100.126024323583
100.122288609833
100.122252921853
100.125886761527
100.119329257116
100.119597593554
100.119366310649
100.117958141889
100.116408937388
100.119350130715
100.117106886083
100.10846823052
100.111071130161
100.082845150515
100.078956995393
100.079320473918
100.085090131394
100.116316580884
100.110634047831
100.093590419614
100.086600638877
100.080279925576
100.081034254539
100.086010650148
100.082993215515
100.083958959165
100.087255952886
100.087243308814
100.083910414734
100.082976660756
100.085646549093
100.084827096784
100.078622310582
100.077351775953
100.081880519022
100.079923081614
100.079754200403
100.078753960569
100.078779396523
100.085004536635
100.084209885739
100.084525363465
100.084910943364
100.080176829014
100.080749826574
100.08209775233
100.082073234033
100.080731579764
100.079966664944
100.080957758464
100.080183342868
100.078702161829
100.078734929417
100.085530400833
100.08459275216
100.084254885381
100.08502272983
100.086301114773
100.086244468949
100.085625620695
100.085804377184
100.086058190148
100.086090943484
100.085183936531
100.084901785801
100.084892896313
100.085074561248
100.08471499133
100.084485358218
100.084143042275
100.08506708963
100.086177304902
100.086487193916
100.085742880318
100.085638006761
100.083912542407
100.084200911982
100.084181782211
100.083976202098
100.084130013174
100.084129398848
100.084158609255
100.084022116412
100.085739637232
100.085713175064
100.085956262075
100.085877892556
100.085712755078
100.085552014447
100.083847237445
100.084032722544
100.084173640803
100.083888832498
100.081566690535
100.081618432043
100.081731259067
100.081759395919
100.08167420105
100.081791281988
100.081741581507
100.081791256471
100.081742834828
100.081728454513
100.084001957886
100.084074827184
100.084004774892
100.084008331254
100.081683527127
100.081532785124
100.08161378967
100.081628679254
100.079628593405
100.079617070224
100.079669277181
100.079728518405
100.079787763451
100.079712828029
100.079799732036
100.079768244008
100.079816842909
100.079781763254
100.079769863717
100.07979092171
100.081752668178
100.081657452428
100.079702356019
100.079719613568
100.079608249156
100.079679877381
100.077944570388
100.077903429091
100.077851882562
100.077883718551
100.077927039548
100.078005419226
100.077948919263
100.078029702415
100.07800845558
100.078056599531
100.078037708707
100.078033061738
100.07804274299
100.077957679507
100.077972389719
100.077893531119
100.076090576863
100.076093031089
100.076050864808
100.075950228038
100.075968192032
100.076013954944
100.076117757626
100.076088273664
100.0761802028
100.076160054659
100.076229697922
100.076242677092
100.07624851615
100.076244442367
100.076145505293
100.076157276126
100.074077285951
100.07400076831
100.07396929983
100.073917819711
100.073671779151
100.073683887963
100.073831975713
100.073943080985
100.073922597501
100.074041979446
100.07404332166
100.074148317848
100.07420159053
100.074255816875
100.074240309495
100.074122935106
100.071554064685
100.071471877715
100.071357821073
100.071332640252
100.071272283766
100.070676939848
100.070643051188
100.071071198979
100.071174344202
100.07118883285
100.071342179577
100.071411800214
100.071604304742
100.071667744781
100.071746563914
100.071686596041
100.067866169308
100.067647927122
100.067664510749
100.06746002667
100.067266423213
100.067467650982
100.066233186203
100.066090279876
100.067020672565
100.066902456113
100.067064497642
100.06733252237
100.067376302113
100.067741024121
100.067921613807
100.067978896607
100.0619194528
100.061767558545
100.061253454319
100.061523970072
100.061395622371
100.060513896981
100.061399422611
100.058877510126
100.058753472077
100.060715078198
100.059820006383
100.060537777626
100.060809773825
100.060809035999
100.06135104993
100.061740305482
100.039437316022
100.039649524522
100.036382551905
100.036057521846
100.039700412602
100.04028618408
100.035527982019
100.035999616192
100.035917201547
100.035825490824
100.035375859635
100.034277455576
100.039119611539
100.038786202357
100.035536351654
100.035975634125
100.041803183063
100.044602046157
100.044680005864
100.042535705913
100.042313565826
100.043953542409
100.046179629621
100.039970551268
100.026800246845
100.069179221455
100.104822612575
100.104499790451
100.068039182042
100.035238924819
100.035453876084
100.174074442349
100.298591758435
100.224048660436
100.222081987271
100.175273445012
100.159911100339
100.145299036383
100.038966857803
100.045506264357
100.043697880037
100.041718384815
100.151090783164
100.15174747531
100.190535955824
100.129479388271
100.130216442031
100.191901737108
100.153008815126
100.151817761257
100.188189390646
100.125142415109
100.122922422308
100.179044886029
100.145632701999
100.162835894732
100.177859915645
100.297874101104
100.367934652904
100.346268703975
100.342989982854
100.361761673712
100.340076294543
100.293634773021
100.459065605111
100.485306947205
100.4923752134
100.52626838759
100.5964256797
100.600638401959
100.52140822885
100.454428949531
100.388006327625
100.350094642842
100.374089447194
100.37262149265
100.369554418671
100.369648713294
100.370562353004
100.371541057483
100.372805733413
100.374618334478
100.376973353802
100.379717845165
100.382588115068
100.385129271722
100.386741711777
100.385525814785
100.383841238643
100.381840339047
100.379652052121
100.377445455294
100.375242917328
100.373048981024
100.370965637232
100.369122838995
100.367622684789
100.366478441467
100.365623560295
100.364957402411
100.364416229162
100.363966400498
100.363604844875
100.363361391698
100.363343293403
100.363716383673
100.364673576056
100.366318576262
100.368235131183
100.37007325207
100.371758239628
100.372865311603
100.37276134692
100.372696700232
100.372069272364
100.371539222758
100.369718974943
100.367740870498
100.365874792863
100.364420681187
100.36367390229
100.363447766597
100.363524893036
100.363769764593
100.364100784769
100.364501423623
100.36498243567
100.365583314404
100.366376946641
100.367443241809
100.368842227228
100.370563482989
100.372522341848
100.374603510905
100.376671971301
100.378686965744
100.380629299053
100.382373759743
100.383858263064
100.384939946093
100.385471757548
100.387341368903
100.388608822183
100.38796766966
100.38666776483
100.384850244702
100.382674089109
100.380304142406
100.377927236307
100.37559800761
100.373322011904
100.371162938683
100.369252697237
100.367689885018
100.366492043871
100.365591598831
100.364881152511
100.36429618203
100.363820562395
100.363462234798
100.363273944441
100.363358394423
100.363894774998
100.365040928743
100.366814541703
100.368728870047
100.370478493211
100.372045552887
100.373091168686
100.372981014972
100.373343773286
100.373586601275
100.373584705629
100.373803573833
100.373690773004
100.373919418707
100.373813195826
100.374051379342
100.37400865451
100.374084821421
100.373932463459
100.373866327884
100.373763145482
100.373616293586
100.373598577579
100.373540868001
100.373792294081
100.373960900045
100.373886174333
100.373922201323
100.373707997632
100.373801040929
100.373579824422
100.373696293234
100.373480295961
100.373478912193
100.373237948221
100.373079950236
100.373342049418
100.37335502454
100.373558619244
100.373464031906
100.373661965208
100.373614952391
100.373794178118
100.37374978235
100.373766466401
100.373567678928
100.37355509734
100.373461326978
100.373445791789
100.373377573095
100.373489647594
100.373626094791
100.373622257696
100.373460108739
100.373530917193
100.37335082258
100.373430647154
100.373238373679
100.373213555944
100.372941147849
100.372747631442
100.373015729624
100.373075566523
100.373257925469
100.373226700233
100.373343680953
100.373424932373
100.3733526549
100.373548665905
100.373647137774
100.373727674958
100.373850633238
100.373972439871
100.374103120146
100.373940896243
100.374196253421
100.374157983647
100.374252176755
100.374096357716
100.3740370352
100.373822684013
100.373506869125
100.373156237433
100.372986821561
100.372848457571
100.372675334804
100.372550498378
100.37259356355
100.372777429054
100.372992584944
100.373154239763
100.37330489707
100.373660269159
100.37351552896
100.373366432139
100.373277527834
100.373378028342
100.373298914482
100.372969074155
100.37269954878
100.372602036527
100.372435525177
100.372513830203
100.372568585055
100.372863017423
100.373163173046
100.37323057517
100.373264956891
100.37340780765
100.373501437901
100.373636876566
100.373743004484
100.373844272846
100.373950212056
100.374077462415
100.374204070437
100.374258737872
100.374350269368
100.374168054086
100.374130506643
100.373860293309
100.373644144718
100.373329775253
100.372854387101
100.372395081739
100.372007850355
100.37185775941
100.371628800893
100.371650368726
100.371961793035
100.372278784641
100.37272218657
100.372505447158
100.372223062774
100.371844908556
100.371680043854
100.371527430241
100.371324741302
100.371182443056
100.371334652956
100.371576774494
100.371858249352
100.372010682588
100.37205992186
100.371770848382
100.371961617558
100.372397379913
100.372348723252
100.372715221836
100.372949818816
100.373250658435
100.373411156668
100.373444744233
100.373565540564
100.373675418157
100.373792754165
100.373703533704
100.373930599337
100.373809571204
100.374056823756
100.374169786142
100.37405175223
100.374301649121
100.374417942556
100.374403088485
100.374497212662
100.374387860112
100.374164577529
100.374147601689
100.374148321339
100.374271876321
100.374253188722
100.374389149788
100.374313280285
100.37433086721
100.374156448182
100.374248013596
100.374502569542
100.374482226328
100.374568594495
100.374506366707
100.374329465081
100.374245747011
100.373794182345
100.373597590192
100.373489105677
100.373077405113
100.372602853239
100.372215712499
100.371626430818
100.371419888087
100.371141975986
100.370896318494
100.370684252755
100.370489448671
100.370208926774
100.369936386748
100.369847323747
100.370187202366
100.3705487538
100.370771192864
100.370950362532
100.371172289094
100.371376696379
100.37108454761
100.371241494943
100.370997005858
100.371340636238
100.372043734739
100.373207879427
100.373521400229
100.373585933135
100.373819547602
100.373815818643
100.374036567625
100.373917964527
100.374029940602
100.374277605311
100.374367966742
100.374459353855
100.374344441696
100.374591433776
100.374573528506
100.374654521998
100.374586588777
100.374403457392
100.374324140311
100.373928357885
100.373721894065
100.37335343336
100.372949131275
100.372609462039
100.372405075947
100.371849823016
100.371676288477
100.371513069563
100.37139617966
100.371412998575
100.371108816414
100.370821712006
100.370612234431
100.370245559235
100.370449275213
100.370797132377
100.37109581438
100.371232012595
100.37093803014
100.370638130656
100.370257618705
100.370306793674
100.369859307528
100.369454910908
100.369135807028
100.36889382714
100.368689165177
100.368967334044
100.369287864924
100.36961212693
100.369959454887
100.369680180174
100.369806043302
100.369882566756
100.370103551804
100.370220131491
100.37092462181
100.37171163837
100.372949351645
100.373280634701
100.373421236414
100.373479779166
100.373713793709
100.373724696623
100.37382928687
100.373955790113
100.373942772674
100.37393137179
100.374153899383
100.374247514475
100.374128338592
100.374220207701
100.374303022239
100.374527416323
100.3744206031
100.3746560556
100.374629554125
100.374708839603
100.374634036711
100.374500813016
100.374381736552
100.374064485843
100.373835502795
100.373453751126
100.373050940234
100.372751624001
100.372245513864
100.37213140377
100.371933645024
100.371784294237
100.371676888854
100.37170942863
100.371577942636
100.371803925055
100.371512085999
100.371210758992
100.370904764473
100.370567964132
100.370204973393
100.369791754369
100.369387671051
100.368842156505
100.369144279389
100.369647868421
100.37011983369
100.370370498865
100.370655919945
100.370969336554
100.37127718781
100.371292481688
100.371164989365
100.370776049236
100.36995209647
100.369811010946
100.36968879209
100.36901908802
100.368510843326
100.367237982129
100.367663705485
100.36849132089
100.369281024458
100.370057398427
100.370334049441
100.370161749324
100.369592335347
100.368844542061
100.368130958113
100.367178060952
100.36634356009
100.365903330989
100.363873581476
100.362529118097
100.364205492367
100.365301565535
100.36605774126
100.367031820941
100.36680570939
100.365476439932
100.364721827949
100.363482630255
100.361888764383
100.360746834852
100.360739953731
100.361933432971
100.363645732108
100.364877396266
100.365544625037
100.366594356215
100.367211269167
100.368086474435
100.369158502333
100.369937369149
100.370707702355
100.371355903631
100.370690250365
100.370965025214
100.370761180153
100.371500488329
100.371096833208
100.370666646742
100.370179388362
100.369648226538
100.368994431581
100.368155404972
100.366892576153
100.366160143327
100.36492882464
100.364436133366
100.363931003891
100.362439164507
100.361776445685
100.360574995332
100.354756310626
100.356462796055
100.357031287514
100.35945459565
100.360947577839
100.364182119584
100.365128360323
100.367919916258
100.368802167255
100.370934947617
100.370116236907
100.368990368742
100.368936275644
100.368925743007
100.369019804945
100.36951868277
100.368803321444
100.36705153221
100.36658945154
100.366426499403
100.366465158663
100.368739847815
100.370803602182
100.370789262535
100.371580102563
100.372053252076
100.372034227152
100.372430618686
100.372190020657
100.372340042841
100.372390574037
100.372435179448
100.372350907534
100.372246794563
100.372082477982
100.371574081726
100.371363042308
100.37154980372
100.371615503772
100.371517813009
100.371767509628
100.371752806563
100.371853880237
100.372160814848
100.3722242705
100.372430630931
100.372161218061
100.372389073205
100.372441939876
100.372147522713
100.372330698455
100.372032498376
100.37203428936
100.371598407365
100.371519724074
100.371968002821
100.371979537251
100.37225708331
100.372122852649
100.372343833342
100.372139746879
100.372316722912
100.372123513294
100.372059456511
100.3719829696
100.372090632731
100.372236311278
100.372157634747
100.372011411021
100.371837768141
100.371485830656
100.371033714741
100.370576184077
100.371001646668
100.371081849733
100.371495576426
100.371390021689
100.371815314732
100.371974444753
100.372162032322
100.371948540855
100.372159224585
100.372196550599
100.372039593436
100.372163744887
100.371811715295
100.371888210271
100.371662447587
100.371028185246
100.370787911846
100.369981130956
100.37013459148
100.370268648986
100.371223088647
100.371697959933
100.371715230363
100.372076075992
100.37185241324
100.372172886225
100.372141965262
100.371935468451
100.372090801384
100.37191089876
100.371696328348
100.371519868569
100.371803391589
100.371924790657
100.372049878614
100.372013428794
100.371900476081
100.371673027957
100.371319686123
100.370639958719
100.369887967063
100.370599457288
100.370799508828
100.371298430955
100.371253007072
100.371682793152
100.371888745426
100.372013983551
100.37176454678
100.372026640665
100.372012418681
100.37188878783
100.371902946293
100.372046307203
100.371644800084
100.371728452392
100.371356335287
100.37057914694
100.370693550539
100.371463456247
100.371489483301
100.372012593059
100.371779755486
100.371883135039
100.371927170177
100.37189077817
100.371903529416
100.371906445817
100.372008924001
100.370436646102
100.371382468038
100.371413746482
100.371642371516
100.372105650124
100.372212329539
100.372226565792
100.37246149844
100.37242325471
100.37251652264
100.37259118675
100.372443762873
100.372556274132
100.372387894603
100.372383759098
100.372465792969
100.372498309912
100.372545252431
100.37269711438
100.372740636526
100.372738678526
100.372444302101
100.372396085717
100.372437994316
100.372205686707
100.371872938479
100.371576785644
100.370912100221
100.370309625644
100.369718605111
100.369956055212
100.370160483324
100.370107535416
100.37002018975
100.370470082594
100.370531390053
100.370666087762
100.370683646672
100.370321867987
100.370678672586
100.370953458348
100.37129582327
100.371783652451
100.372076302074
100.372210425932
100.372246913047
100.372287715827
100.372277099885
100.372362848396
100.372566802697
100.372515025842
100.372707793269
100.372612567263
100.372791946693
100.373001719007
100.372918813863
100.372913500552
100.372648844205
100.372539632833
100.372295673497
100.3718629925
100.371384264857
100.371265844837
100.371432572308
100.371557428242
100.372130423789
100.371692125995
100.371803878183
100.372142387439
100.37228040824
100.372507236827
100.372531767255
100.372664980352
100.372605905563
100.372880533768
100.37276975712
100.372825405733
100.373133404746
100.373065654463
100.373063982952
100.372934872081
100.372738245984
100.37292630167
100.37297321735
100.373064884144
100.3731847321
100.373259725369
100.373180290873
100.373053998594
100.373072566464
100.372844987722
100.37282282325
100.372655339424
100.372305598738
100.372298433563
100.371749790828
100.371362953709
100.371278127885
100.371008976084
100.370909171879
100.370859317221
100.370800824664
100.371654091442
100.372153938632
100.37221637453
100.372400191918
100.372441321017
100.372700003213
100.372890003916
100.372666455597
100.373061576514
100.373042980736
100.373175101863
100.373284725976
100.37342084304
100.373523300937
100.373650303344
100.373760345107
100.373901117348
100.374007806592
100.37412721125
100.374220491659
100.374317758951
100.374392212488
100.374468633912
100.374379714835
100.374588328965
100.374484857883
100.374706941529
100.374683965285
100.37476853166
100.37466760184
100.374614431524
100.374521971956
100.374459534552
100.374249792006
100.373978785699
100.373584813779
100.373207997301
100.372933313648
100.372455908259
100.372376984416
100.372228870655
100.372172880917
100.372166272474
100.371916026456
100.371799522587
100.372029616957
100.372025922437
100.372067346991
100.372149295365
100.371899083625
100.371652482676
100.371394652712
100.371102666454
100.370776496615
100.370337895164
100.37059570979
100.370988733963
100.371275734245
100.371546800984
100.371809708965
100.371782025215
100.371496936335
100.371212403434
100.370910686393
100.370516894255
100.370004195602
100.370359560164
100.369859197947
100.369345839624
100.368876138794
100.368452894331
100.367747291323
100.368157413332
100.368769873288
100.369119264692
100.369577028345
100.369546201043
100.36940961783
100.369088632688
100.368889786855
100.36865044518
100.368863533078
100.368646854162
100.369653414306
100.37164554012
100.371996806641
100.372351435771
100.372372568764
100.373343588512
100.373223887819
100.373721671369
100.373827464774
100.374041536747
100.374036091304
100.374135311852
100.374337584615
100.374413981883
100.374488087553
100.374542034278
100.37444642719
100.37463195439
100.374549788524
100.374741924647
100.374719164519
100.374789250973
100.374687638007
100.374647471782
100.374518758876
100.37428247849
100.374088756313
100.373712064676
100.373398145743
100.373117047109
100.372688508296
100.372580337546
100.372289407117
100.37240533302
100.372209223176
100.372351612669
100.372337863895
100.372461492659
100.37223488526
100.372242037783
100.372332153092
100.372408199124
100.372361970228
100.372451299025
100.372200680621
100.371964163069
100.371712605001
100.371423185712
100.37111220218
100.370756350823
100.370302717573
100.36988165172
100.369492443182
100.369864471444
100.370318104391
100.370598921274
100.370974482811
100.371288416763
100.371570880826
100.371829181199
100.372089332506
100.372110084366
100.372024366984
100.371589970732
100.371992618278
100.37149813014
100.371032111799
100.371539013627
100.371096957534
100.371361885886
100.371046317191
100.371888864923
100.370709495051
100.370350183599
100.369892468131
100.369325186441
100.368653701904
100.367914651852
100.367094635885
100.366174834952
100.365273166678
100.363452427247
100.363430951702
100.363069004104
100.362911820852
100.361446795139
100.360298277087
100.359775636193
100.359778259863
100.353632594839
100.354064437216
100.352555930786
100.353328098491
100.352955349827
100.354699635451
100.355667304904
100.354738185866
100.353226564601
100.354871457049
100.35451210837
100.354845280829
100.355676181566
100.355900572195
100.354832016781
100.355290342087
100.358391825554
100.353954286292
100.353704048036
100.355705847499
100.355684992102
100.356024887404
100.357775585476
100.359203764856
100.360182549547
100.359576380774
100.358039311573
100.359277019201
100.360543566978
100.359426205407
100.357842790051
100.358025475646
100.359784305689
100.361261280974
100.363118541993
100.364629267862
100.365368233165
100.363706481177
100.365039920697
100.36652867808
100.367055278653
100.36847922195
100.367603643128
100.368764795135
100.369700870889
100.370534197026
100.371193587403
100.371785341818
100.37197406796
100.372293965358
100.372155351331
100.371358714774
100.371793756818
100.37169605041
100.37221510262
100.371122657365
100.368703634683
100.368305132182
100.367905005048
100.36745382683
100.366888792012
100.366246471309
100.365521279913
100.364737362769
100.364019848893
100.363078141542
100.363129264332
100.363354535118
100.363411920356
100.363250240144
100.362636492967
100.36237355942
100.36381617102
100.364285631523
100.365213971599
100.366790787109
100.369015955499
100.369423589711
100.367256024042
100.365494076242
100.364280867681
100.363750993287
100.363636492584
100.363735960648
100.363951927825
100.364232946792
100.364572038225
100.36498448244
100.365508288633
100.366210456911
100.367148805518
100.368382539692
100.369924149999
100.371735293994
100.373719054054
100.375691838338
100.377508351325
100.379145709949
100.380589652146
100.381824025349
100.382741035407
100.383196636556
100.383158725504
100.385443787928
100.387323832779
100.388599376232
100.389170401647
100.389175221001
100.38851227376
100.387167056187
100.385275710565
100.383009547109
100.380534833269
100.378053359153
100.375638661604
100.37329884857
100.37109128157
100.36915590344
100.367582497447
100.366377001077
100.365470628071
100.364749442102
100.364155124157
100.36369445663
100.36338774248
100.363302103599
100.363519992508
100.364205492028
100.365491149202
100.367337416365
100.369231659816
100.370899424558
100.371348647353
100.372721652794
100.373606968953
100.373492091788
100.37376791117
100.373478571649
100.374054479103
100.374160311311
100.374147732367
100.374237157563
100.374227896451
100.374311541325
100.37438988679
100.374453225266
100.374590915682
100.37450568128
100.374672915884
100.374607181522
100.374773315929
100.374757662451
100.374815379462
100.374728088006
100.374691310963
100.37457261314
100.374350452033
100.374179632474
100.373738598443
100.373563469458
100.373342146076
100.373224903397
100.372980124969
100.372835898725
100.372564662301
100.372615475551
100.372566264526
100.37256841811
100.372660074419
100.37258391068
100.372806674077
100.372634867967
100.372378508658
100.372571399964
100.372612777432
100.37264863686
100.372731304637
100.372528875962
100.372494724207
100.372153677994
100.371892392314
100.371635196967
100.371323539583
100.37099288416
100.370598731769
100.370332155265
100.370532093694
100.370936131
100.371262582734
100.37157986154
100.371837120124
100.372098455105
100.372370159046
100.372367268984
100.372429820957
100.372337677165
100.372164934767
100.372345223982
100.372158459181
100.372408167265
100.371992228273
100.372438217334
100.372077103876
100.371835105825
100.372114905376
100.372203777521
100.372052475964
100.372557915505
100.37164984233
100.369217432352
100.367358036457
100.366282291591
100.36568189276
100.365299576616
100.364901100394
100.364521640366
100.364072869626
100.363695155662
100.363332792939
100.363135943956
100.362985512896
100.362953465609
100.363059494167
100.362800103249
100.36341746897
100.363624260599
100.363812624356
100.363732710305
100.363633619883
100.363737382425
100.363935805427
100.36415680554
100.363188044533
100.363902961956
100.36353155045
100.363253393931
100.362263588186
100.360881630412
100.360680288933
100.359654417291
100.359403708423
100.353532289404
100.35484951387
100.35450858798
100.355380210824
100.355491055313
100.357271957754
100.358230159018
100.357474573366
100.356533787121
100.357169898976
100.357716528964
100.357643805366
100.35798149293
100.358493167835
100.357675961192
100.360281709449
100.360592412972
100.358696959002
100.360338761163
100.360501478289
100.356439004897
100.356029648489
100.354107689777
100.358072893638
100.360768311211
100.364236057944
100.367377803282
100.368864073429
100.369470244963
100.370616008841
100.371343804916
100.371526612393
100.371460039283
100.371889079621
100.37173573515
100.371955754226
100.371965739222
100.371756363961
100.371862472837
100.371610861465
100.371332126794
100.371671709056
100.371845198679
100.371776289583
100.371517276812
100.371105838691
100.370491807385
100.371222281459
100.371334092187
100.371708986834
100.371641189871
100.371871480643
100.372050924971
100.371987173612
100.371724134948
100.371957855145
100.372024006178
100.371613024835
100.371798164051
100.371931532844
100.371495869348
100.371518093606
100.370996470019
100.370097304647
100.368953111116
100.368485959149
100.366506165313
100.368189254406
100.368013754037
100.369254074292
100.370196992625
100.371131616665
100.371559704822
100.371530168702
100.371889836291
100.371721372565
100.37206143297
100.371913791099
100.371877623203
100.37187474296
100.371788824511
100.371710085433
100.371566579795
100.370453266739
100.371335674808
100.371498034757
100.370511034656
100.367808888556
100.369093577827
100.369405860566
100.370765263407
100.371443228398
100.371524577056
100.370966526752
100.368310539231
100.369726260045
100.370251613657
100.371189972673
100.371620210014
100.371301221803
100.371033787767
100.370793090469
100.370348661669
100.36914965193
100.370117926844
100.371129508971
100.371214118231
100.371317730227
100.369752644895
100.370538214463
100.370760308263
100.371469835197
100.371924004012
100.372023417838
100.372011538308
100.372050634387
100.372090326447