/*--------------------------------*- C++ -*----------------------------------*\
| =========                 |                                                 |
| \\      /  F ield         | OpenFOAM: The Open Source CFD Toolbox           |
|  \\    /   O peration     | Version:  v1612+                                |
|   \\  /    A nd           | Web:      www.OpenFOAM.com                      |
|    \\/     M anipulation  |                                                 |
\*---------------------------------------------------------------------------*/
FoamFile
{
    version     2.0;
    format      ascii;
    class       volScalarField;
    location    "1.2";
    object      p;
}
// * * * * * * * * * * * * * * * * * * * * * * * * * * * * * * * * * * * * * //

dimensions      [0 2 -2 0 0 0 0];

internalField   nonuniform List<scalar> 
74874
(
100.129123271602
100.131507455079
100.131980825896
100.130570614607
100.136085811491
100.136672201835
100.133514340126
100.135122671401
100.13763969501
100.137713346743
100.135600879058
100.134064780294
100.137348462557
100.136798445948
100.137809821727
100.137993228021
100.137374599706
100.134235889405
100.131326883825
100.130757303652
100.132231719066
100.133548866793
100.13203032558
100.1316806738
100.137121911508
100.13725782985
100.132657141181
100.13292276431
100.134085510718
100.132264194783
100.132401701827
100.13389987699
100.132904667392
100.132604500461
100.137190715221
100.136692897638
100.131590833055
100.132007015226
100.133449034744
100.131869750326
100.130438693435
100.130964147558
100.133870669834
100.137017038477
100.137464574559
100.137222446631
100.131079393786
100.130339033664
100.129944981453
100.129378858974
100.128366100006
100.128371410357
100.127656469977
100.128004131365
100.128271106463
100.128827893762
100.130028644666
100.129517123379
100.127909512278
100.127622192533
100.127355133766
100.126902033012
100.126946388509
100.127484273596
100.127645267276
100.127980951172
100.129533938587
100.13006766385
100.128943456406
100.12842659113
100.128294559122
100.127956961558
100.128618677316
100.128628633881
100.129616931069
100.130233682644
100.130710860193
100.131489260885
100.131033431028
100.132603756047
100.13221223248
100.133354806716
100.133614177352
100.133399044174
100.132831902601
100.132350670768
100.131853875181
100.128697745972
100.127022722055
100.12905365132
100.128015037016
100.124323063228
100.125272010361
100.127883967958
100.127581560515
100.125838108823
100.124079757772
100.125662085283
100.127224793003
100.126575324125
100.125899291839
100.125483262391
100.12366316102
100.122598387615
100.123795088529
100.123739522523
100.122477970601
100.123616227801
100.125596078317
100.126078931847
100.12642539636
100.127433624139
100.126206583739
100.124559910127
100.126202733732
100.127841732745
100.128118524247
100.125448050862
100.124540539954
100.128424161556
100.129477998081
100.127538602379
100.129517759718
100.133079618333
100.133303144857
100.130891883683
100.130655785804
100.124236646049
100.132387105944
100.131980451411
100.126549952945
100.124075811227
100.128713704133
100.129086305636
100.123415465813
100.123649334246
100.126548701776
100.124955369074
100.123782809581
100.121787231842
100.124674009074
100.127249831817
100.123489227538
100.122932353698
100.12517121447
100.121546236189
100.119198423405
100.121382892777
100.121348062838
100.11913656998
100.121518634058
100.125282434632
100.123304696555
100.124152920992
100.128214854841
100.125657521714
100.122365552704
100.124198829257
100.125259528346
100.126834200717
100.123859027688
100.123578143278
100.129661553809
100.129184301728
100.12477650907
100.127806774658
100.13459804677
100.135476312521
100.125172078206
100.152307614465
100.150265616377
100.122846228242
100.122709372862
100.128036841095
100.117577890882
100.119111417406
100.130163914427
100.126537244885
100.123684837838
100.123614988184
100.128520979438
100.118094579999
100.119239687699
100.119497634081
100.119249866356
100.126073501346
100.122337788224
100.122302100929
100.125935941011
100.119378438519
100.119646776201
100.119415494996
100.118007327287
100.116458122971
100.119399315483
100.117156068913
100.108517411817
100.111120309162
100.082894331649
100.079006173249
100.079369649259
100.085139305927
100.116365756069
100.110683224558
100.093639596758
100.086649815098
100.080329096742
100.081083425609
100.086059824876
100.083042391054
100.084008136989
100.087305133347
100.087292493853
100.083959602639
100.083025851122
100.085695741192
100.084876289346
100.078671502864
100.077400964412
100.081929704125
100.079972272107
100.079803383226
100.078803137577
100.078828569237
100.085053701436
100.084259048805
100.084574526079
100.084960108879
100.080226001956
100.080799003012
100.082146934032
100.082122422635
100.080780774376
100.08001586434
100.08100696081
100.080232545864
100.078751362521
100.078784125619
100.085579609712
100.084641950144
100.084304069687
100.085071902964
100.086350280845
100.086293620448
100.085674764518
100.085853520367
100.086107337549
100.086140102742
100.085233108231
100.084950966575
100.084942089497
100.085123766488
100.084764205313
100.084534577622
100.08419226279
100.085116306306
100.086226549018
100.086536422816
100.085792088923
100.085687192051
100.083961725512
100.084250061822
100.084230907263
100.084025310712
100.084179118899
100.084178509691
100.084207738725
100.08407127665
100.085788813031
100.085762373962
100.086005483306
100.085927131443
100.085762004271
100.085601265035
100.083896540944
100.084082013029
100.084222903802
100.083938056828
100.081615940184
100.081667608096
100.081780377745
100.081808472244
100.081723246552
100.081840316982
100.081790622934
100.081840326229
100.081791958266
100.081777659022
100.08405116145
100.08412407554
100.084054058808
100.084057631557
100.081732922288
100.081582183798
100.081663159827
100.081677999887
100.079678015659
100.079666350465
100.079718437374
100.079777579201
100.079836753043
100.079761763774
100.079848640987
100.07981715362
100.079865794019
100.079830805448
100.07981905502
100.079840290851
100.081801960509
100.081706815904
100.07975186803
100.079769185036
100.079657819704
100.079729378089
100.077994253101
100.077952990379
100.077901226611
100.077932845838
100.07797599505
100.07805426006
100.077997667933
100.078078389564
100.078057127404
100.078105321263
100.078086570746
100.078082187432
100.078092259309
100.078007485838
100.078022319649
100.077943424161
100.076141121706
100.076143171587
100.076100657114
100.075999637534
100.076017257969
100.076062702456
100.076166351177
100.076136725222
100.076228527906
100.076208315991
100.076277987218
100.076291135239
100.076297523913
100.076294055209
100.076195900433
100.076207988434
100.074129873602
100.074052415133
100.074020280108
100.073967961758
100.073721216654
100.073732760758
100.073880471581
100.073991331073
100.073970622389
100.074089781109
100.074090859924
100.07419573932
100.074249155199
100.074304220335
100.074290148812
100.074175450884
100.071613430383
100.071528837856
100.071411276378
100.071384703102
100.071322780745
100.070726335614
100.070691610301
100.071119267789
100.071222077835
100.071236318115
100.07138927575
100.071458256971
100.071650234079
100.071713446047
100.071793005997
100.071736327342
100.067911961913
100.067734736464
100.067731317348
100.067516503145
100.067319649499
100.067518254464
100.066282269038
100.066138286649
100.067068050798
100.066949533434
100.067111374255
100.067378921922
100.067421616175
100.067784885557
100.067963988225
100.068019339995
100.061947397159
100.061789715598
100.061479350095
100.061600252494
100.061452214936
100.060567148821
100.061449424115
100.058925735854
100.058800556167
100.060761410964
100.059866448206
100.060584187469
100.060855645994
100.060854201336
100.061393812131
100.061779144529
100.039481120537
100.039690594335
100.036427229157
100.036136489984
100.039765041683
100.040342877058
100.035580558462
100.036048007939
100.035963969485
100.035870923167
100.035420815057
100.034323069226
100.039165822746
100.038832561465
100.035582694461
100.036020773904
100.041853482898
100.044653478961
100.044731945356
100.042588498721
100.042369263056
100.04400933021
100.046232228917
100.040019222541
100.026846611836
100.069223523355
100.104865071334
100.104540806638
100.068081497654
100.035281544649
100.035497795991
100.174118497213
100.298635171307
100.224090550822
100.222121536991
100.1753143507
100.159952894464
100.145342400651
100.039010849258
100.045552507064
100.043745846672
100.041767803531
100.151141819485
100.151798577462
100.190587732975
100.129531612466
100.130269434974
100.191955187695
100.153062489264
100.151873947075
100.188246066207
100.125198873769
100.122974430884
100.179094739894
100.145680078238
100.162880565147
100.177903124969
100.297917814901
100.367978059513
100.346310254547
100.34302750811
100.361801635506
100.340116199672
100.293675183791
100.459108224677
100.485350788842
100.492420929569
100.526316880535
100.59647556136
100.600687511464
100.521458182607
100.454479675345
100.388057779299
100.350146359728
100.374143910059
100.372669146573
100.369596525849
100.369689368071
100.370602524818
100.371582405328
100.372849422899
100.374664703324
100.377022064341
100.379767603539
100.382637467428
100.385177598307
100.386789912546
100.3855649189
100.383868086366
100.381855525104
100.379665648181
100.377460089616
100.375253897602
100.373049344959
100.370955672512
100.36910030123
100.367575007587
100.36638808215
100.365455089504
100.364697788205
100.364083402816
100.363618330607
100.363340252453
100.36327285196
100.363418032396
100.363859008968
100.364772773701
100.366310569742
100.36815608555
100.370003832279
100.371730602652
100.372825351722
100.372710885755
100.372632831811
100.371988420335
100.371470905746
100.369626623495
100.367674512929
100.365938056534
100.364632350726
100.363913701154
100.363557529731
100.36340737902
100.363444099188
100.363688077208
100.364124936231
100.364706274862
100.36541528927
100.366294983254
100.367401695802
100.368819153408
100.370545111702
100.372514214743
100.374609561354
100.376686205286
100.378702914309
100.38064946896
100.382406773772
100.383905445735
100.384998476966
100.385535243314
100.387393920728
100.388655427313
100.388010729144
100.386703729624
100.384876130293
100.382689063448
100.380315522531
100.37793516358
100.375598797214
100.373307033481
100.371130084672
100.369197609912
100.367607873271
100.366372009338
100.365410498302
100.364638925267
100.364019914372
100.363565455049
100.363292404074
100.363223216823
100.363391668112
100.363933175315
100.365025611495
100.36674763532
100.368655848077
100.370447047388
100.372064086406
100.373084538261
100.372960402322
100.373306822857
100.373553676907
100.373548780504
100.373765593356
100.373654811134
100.373871961246
100.37376486375
100.373991625102
100.37394269893
100.374012369639
100.373862882518
100.373804740441
100.373657169183
100.373475251937
100.373442387274
100.37338379782
100.373676176184
100.373851373169
100.373786765507
100.373837249384
100.373640771543
100.373736010918
100.373528891674
100.373644286806
100.373430588862
100.373430982667
100.373188521371
100.373023132316
100.373283106502
100.373293884862
100.373494431358
100.373400884145
100.3735857829
100.373532985182
100.373694045377
100.373625780289
100.373629886929
100.373408496928
100.373390732271
100.373279066485
100.373279089497
100.373196481891
100.373335977416
100.373489177491
100.373498985702
100.373365921201
100.373443806032
100.373275203459
100.373357045924
100.373165837272
100.373144679827
100.372873057159
100.372671604485
100.372934035486
100.372991089703
100.373177192057
100.373141199906
100.373251703633
100.373302900036
100.373210525141
100.373434535063
100.373535319716
100.373627379174
100.373764667049
100.373911019171
100.37406802007
100.373919668822
100.374170010814
100.374129412887
100.374216620878
100.374065788573
100.374020392339
100.373819915693
100.373520388626
100.373197458778
100.372998887203
100.372818681648
100.372603594751
100.372430265299
100.372448078366
100.372618691752
100.372874774881
100.373082871473
100.373284136938
100.373613623448
100.373417815397
100.373220223693
100.373104189977
100.373195062653
100.373094165349
100.372772471073
100.372513054347
100.372389038584
100.372208395668
100.37228286516
100.372341748545
100.372639822817
100.372943901582
100.373037991403
100.373107115816
100.373259238288
100.3733474749
100.373493779278
100.373615888011
100.373734821935
100.373872364412
100.374033429578
100.374198945802
100.374264987391
100.374355614662
100.374180102644
100.374155473939
100.373899649217
100.37370102355
100.373410227114
100.372957808062
100.372505100317
100.372119543525
100.371972544828
100.371729918969
100.371715717209
100.372034219445
100.372378238804
100.372799851764
100.372554810514
100.372234335672
100.371902755929
100.371700057834
100.371503969444
100.371265741559
100.371083125791
100.371203926413
100.371410142398
100.37172541222
100.37192859682
100.372035125037
100.37176963203
100.37192684581
100.372319804142
100.37228374531
100.372645310978
100.372844239202
100.373179491599
100.373363382807
100.373394191842
100.373520484764
100.37364567154
100.37377476497
100.373685011912
100.37390692989
100.3737921982
100.374030588027
100.374168538639
100.374059924646
100.374306962375
100.37446186366
100.374459263329
100.374561889596
100.374458905734
100.37423224486
100.374241350893
100.374208714956
100.374368321997
100.374320752913
100.374444584176
100.374353631711
100.374364966181
100.374194008384
100.374315418179
100.374581355419
100.374574424511
100.374679301863
100.37462904071
100.374461910586
100.374388038901
100.373936346336
100.37374341461
100.373603241541
100.37320591657
100.37272490148
100.372326984494
100.371724675318
100.371509367986
100.371246970411
100.371020491979
100.370820108953
100.370624153571
100.370342534956
100.370047711788
100.369937426049
100.370274596941
100.370660090763
100.370885579222
100.371083906802
100.371295638635
100.371486278014
100.371199147699
100.371362421565
100.371155853837
100.371481131119
100.372053745381
100.37322703223
100.373554315634
100.37358171111
100.373823033511
100.373817288236
100.374035209684
100.373921914254
100.374060156646
100.374299632979
100.374416197836
100.374538111346
100.374448821158
100.374710841708
100.374709826701
100.37481254293
100.374753698955
100.374574942845
100.374502496788
100.374102318099
100.37389421326
100.373514540046
100.37308902176
100.372718600181
100.372516835661
100.371939580902
100.371752279821
100.371578254689
100.371453993247
100.371462926303
100.37116553982
100.370888033995
100.370691798207
100.370321158401
100.370542486105
100.370875973447
100.371163145436
100.371312367505
100.371034753528
100.370756288533
100.370392273122
100.370422881056
100.36999088404
100.36959768188
100.3692824967
100.36904453725
100.368824211457
100.369090355334
100.369429117885
100.369753391902
100.37009434032
100.369831198632
100.369981780756
100.370082516824
100.370315653829
100.370428107868
100.371052349936
100.371680461502
100.372930697199
100.373279263561
100.37343589359
100.373456779974
100.373696737842
100.373712719492
100.373837469435
100.373985182928
100.373969433113
100.373957768364
100.374176208175
100.374294337904
100.374183545999
100.374301218596
100.374408818469
100.374632972322
100.374553256161
100.374806665529
100.374800945674
100.374907748368
100.374843373041
100.374718987927
100.374598646393
100.374271815318
100.374035387607
100.373619516839
100.373185615356
100.372850943238
100.372311788651
100.372176949752
100.371995563443
100.371835912633
100.371724514807
100.371754005851
100.371623618287
100.371849447209
100.371558786872
100.371257957831
100.370955657739
100.370623856217
100.370265983447
100.369857640208
100.369458555433
100.368946212407
100.369250030092
100.369741763398
100.370200039582
100.370444246788
100.370717953609
100.371023279082
100.371327306893
100.371337753447
100.371207153661
100.370815923924
100.370007886208
100.369929330743
100.369809588418
100.369232742988
100.368787501349
100.3675709914
100.36793372006
100.368678013505
100.36938745308
100.370084805644
100.370355561298
100.370208130718
100.36977300808
100.369120496729
100.368431497173
100.367477992969
100.366602625814
100.366089024384
100.364092997216
100.362834017456
100.364371797045
100.365533845574
100.366290728743
100.367312906696
100.367095417827
100.36582699057
100.365035125894
100.363741666748
100.361991976026
100.360688303158
100.36100249453
100.362241490986
100.363984283611
100.365199422139
100.365832763931
100.366836552722
100.367425151855
100.368259050343
100.369282544433
100.370021242112
100.370749970623
100.371377694569
100.370656088062
100.370910524604
100.370665460718
100.371821661178
100.371323327721
100.370728126157
100.370094761899
100.36946393777
100.368784353862
100.367913934371
100.366649919143
100.365906831611
100.364874886597
100.364295170826
100.363827567119
100.36246129247
100.361822578712
100.360687881163
100.354668720565
100.356201282944
100.356858856227
100.35946747393
100.361118886301
100.36398268601
100.364964269993
100.367672017534
100.368579228713
100.370693087051
100.369871966621
100.368757064825
100.368715646189
100.368722583875
100.36881672795
100.369311962148
100.368619707996
100.366956946258
100.366551853261
100.366406076592
100.366428878102
100.368520436319
100.37059598253
100.370565927569
100.371396410881
100.371892630964
100.371892972029
100.372308241976
100.372069354823
100.372224026225
100.372275250363
100.372307930691
100.372218238009
100.372092616611
100.371907129403
100.371385040845
100.371162257027
100.371374605321
100.371439177338
100.371354737011
100.371615601428
100.371608094164
100.371688909223
100.372011248924
100.372090500481
100.372306395687
100.372038542408
100.37227830899
100.372318816462
100.372011924457
100.37219863406
100.371884718915
100.371868551321
100.37140087483
100.371298578014
100.371794462885
100.371821273705
100.372113531433
100.37197776113
100.372216241722
100.372011730098
100.372188029029
100.371992760531
100.371919484661
100.371845749286
100.371960545779
100.372102344535
100.372023306776
100.371882182261
100.371703923467
100.371343172001
100.370876952512
100.370415528732
100.370837286416
100.370933518481
100.37135104947
100.371251999782
100.371675506313
100.371833874118
100.372019783223
100.371796599937
100.372013591384
100.372064610589
100.371882555261
100.37201338681
100.371633689476
100.371720120138
100.371452392043
100.370784714102
100.370554822337
100.369746060162
100.369892310274
100.370024965681
100.370984891489
100.371500208434
100.371535571833
100.371902247405
100.371678049515
100.372015306081
100.371980081794
100.371773639771
100.371942802791
100.37176643242
100.371553849168
100.371375117892
100.371651791006
100.371774285184
100.371890515045
100.37184664401
100.371743482892
100.37152317352
100.371170905477
100.370490687659
100.369737270266
100.370438777272
100.370656782949
100.371134390485
100.371099953473
100.3715246589
100.371722174714
100.371843519768
100.371575742707
100.371844407996
100.371841091338
100.371699672738
100.371722185086
100.371870679804
100.371457535828
100.371524543044
100.371123350621
100.370345647214
100.370446630223
100.371232868288
100.371284816631
100.371821327204
100.371591764179
100.371691636722
100.371739416084
100.371707509984
100.371717845648
100.371717944615
100.371834256226
100.370174959606
100.37116213355
100.371208393554
100.371476776578
100.371958210387
100.372086735336
100.372097649732
100.372349383963
100.372309461148
100.372405047841
100.372462985988
100.37230825551
100.372414901565
100.372225239342
100.372203522216
100.372307429943
100.372362740868
100.372397963921
100.372548182335
100.372592098245
100.372569123809
100.372256187424
100.372180713062
100.372243192032
100.372011962947
100.371661699759
100.37137873848
100.370715657718
100.370125682531
100.369582873529
100.369810238838
100.369998340698
100.369923502102
100.369844655537
100.370301282448
100.370355074166
100.370474396879
100.370485239005
100.370141809802
100.370499844278
100.370780923187
100.371114226921
100.371628718535
100.371931989665
100.372073993842
100.372114711229
100.372163448611
100.372158742185
100.372243548417
100.372458780933
100.372407777368
100.372598404273
100.372500278761
100.37266243403
100.372875347583
100.37276382545
100.372733221658
100.372437237397
100.372314397817
100.372059492151
100.371630735211
100.37118900351
100.371067468623
100.371230425148
100.37132408347
100.371905119367
100.371486595023
100.371623588222
100.37199150521
100.372145895304
100.372393599551
100.372435040879
100.372570589656
100.37250076172
100.372775687261
100.372654124255
100.372706767378
100.373006251394
100.372906990164
100.372872602556
100.372718868853
100.37252632052
100.372746306952
100.372823847398
100.372945082468
100.373072314536
100.373136853011
100.373081046984
100.37296180897
100.372984333182
100.372747067155
100.372726089422
100.372561683823
100.372207878269
100.372214315503
100.37166511779
100.371276243625
100.371183292657
100.370893984723
100.370772278062
100.370698809226
100.370619162215
100.371504765493
100.372018199707
100.372092434302
100.372289108462
100.372326690502
100.372596713245
100.372790727393
100.372559746484
100.372965557484
100.372951437511
100.373090075618
100.373204328989
100.373345325182
100.37345378652
100.373588785589
100.373710395048
100.373867250252
100.373993068836
100.374139087548
100.374255767278
100.374382604587
100.374481221127
100.374582731029
100.374508793482
100.374716275793
100.374641383816
100.374883983584
100.374886389141
100.375005104167
100.374912301299
100.374864754387
100.374756380352
100.374719404775
100.374486798767
100.374190515499
100.373750082161
100.37333541232
100.373023671625
100.372510656577
100.372408950869
100.372253390282
100.372205197363
100.372202864457
100.371953158803
100.371841369571
100.372074454645
100.372073036615
100.372119131836
100.372195950978
100.371948052071
100.371703675047
100.371447973699
100.371156483251
100.370829133609
100.370380284952
100.370652034965
100.371046214982
100.371332065354
100.371601349992
100.371862878715
100.371829493635
100.371545773878
100.371263011888
100.370965429032
100.370574127796
100.370064596418
100.370401360627
100.369905654602
100.3693899068
100.368913029917
100.368501433488
100.367820688335
100.368238985454
100.368821927278
100.369185925085
100.369639213576
100.369601864974
100.369477110323
100.369182614046
100.369037251739
100.368925429522
100.369174806426
100.368872372148
100.369614299995
100.371618846453
100.372016239815
100.372423446824
100.372442077485
100.373383640287
100.373244374466
100.37374079016
100.373868904498
100.374091324056
100.374088241884
100.37421382998
100.374408866578
100.37450855548
100.374606067466
100.374678877114
100.374592186938
100.374781567067
100.374729379894
100.374945638514
100.374946246585
100.375047663452
100.37494706057
100.374914005011
100.37478722402
100.374526154974
100.374310128904
100.373880034607
100.373533938167
100.373210772426
100.372742522189
100.372610950399
100.372311134244
100.372428854142
100.372232211658
100.372373688548
100.372372670503
100.372506295415
100.372277550898
100.372287238359
100.372386557614
100.372453381624
100.372408850199
100.372490236023
100.372239501436
100.372004464695
100.371754352248
100.371465923028
100.371156379759
100.370801455919
100.370349129444
100.369925299187
100.36952690022
100.369913692411
100.370366690441
100.370649822787
100.371026121433
100.371340563246
100.371621560637
100.371878361593
100.372137104256
100.372153244269
100.372070766582
100.37162949475
100.372034029084
100.37152244283
100.37102105486
100.371497044222
100.371009923015
100.371216916717
100.37082168486
100.372238831978
100.371295255951
100.370737152359
100.36995965824
100.369134614893
100.368354465686
100.367650133163
100.366917560569
100.36599617555
100.365093090291
100.363711854864
100.363996088269
100.363692013358
100.363187779445
100.361748901366
100.360481032492
100.359947759503
100.359888178698
100.353495302554
100.354017173401
100.352471128651
100.353171380782
100.352869069371
100.354556610664
100.355555471335
100.35466720163
100.353146368035
100.354808849814
100.354412624793
100.354753124131
100.355538293242
100.355773197351
100.354726977154
100.355174444979
100.35831525115
100.353874131768
100.353744119614
100.355744342071
100.355653071251
100.355814048238
100.35776079922
100.358914112112
100.360104880489
100.359453358283
100.357947907313
100.35944997687
100.360928613991
100.359694334465
100.358018843223
100.358325603857
100.360114739587
100.361593803302
100.363420503825
100.364861518109
100.36550104365
100.363881775035
100.365183818972
100.36663583615
100.367114778318
100.368536546663
100.367777137808
100.368891498458
100.369794165022
100.370599565766
100.371231034812
100.371809549141
100.371979422871
100.372240840167
100.372036195574
100.371234440376
100.371643650285
100.371467830315
100.372509703299
100.371703313618
100.36929469241
100.368801719962
100.368157068899
100.367398961022
100.366628962755
100.36598109254
100.365342701628
100.364671755001
100.364011530212
100.363568875813
100.363561430415
100.363939691244
100.363983943235
100.364121085759
100.363799380246
100.363064496811
100.364371139317
100.364597133048
100.365369671792
100.366722755891
100.368829968671
100.369292211076
100.367186252298
100.365609197151
100.364572208475
100.364048212144
100.363765531218
100.363614782568
100.363620689055
100.363816912511
100.364197016536
100.364712553343
100.365341335656
100.366121355985
100.367095817484
100.368340717436
100.369884867715
100.371708177775
100.373711488692
100.375703964943
100.377529289101
100.379173817339
100.380631658383
100.381882278438
100.382813099859
100.383274847648
100.38323480272
100.38550590617
100.387375685851
100.388645761246
100.389214889138
100.389219563347
100.38855384844
100.387203341828
100.38530353238
100.383027296556
100.380546377978
100.378057564373
100.375631109194
100.373270228927
100.371039152175
100.369079757205
100.367480242769
100.366239922887
100.365287156596
100.364529722787
100.363932951065
100.363516555087
100.363288097967
100.363259933362
100.363492454564
100.364151694747
100.365407938074
100.367264300739
100.369207503093
100.370935523409
100.37146631875
100.372840939648
100.373697695747
100.3735584943
100.373835813123
100.373544137946
100.374107142439
100.374237270736
100.374222094655
100.37433369423
100.374330921026
100.374436265096
100.374531670607
100.374608854657
100.374739523167
100.374666289021
100.374838142585
100.374804091792
100.374992834606
100.374997822967
100.375084213563
100.375002145507
100.374969091688
100.374850391985
100.374596688006
100.374398867029
100.373894554851
100.373688615128
100.373456607765
100.373301112699
100.37303773141
100.3728705167
100.372585696683
100.372632064457
100.372583083159
100.372603151874
100.372705522657
100.372627866371
100.372853073716
100.372682844548
100.372423223133
100.37261674907
100.372656122196
100.372690127417
100.372768594297
100.372566599916
100.372531083295
100.372188945958
100.37192697182
100.37166958969
100.371357665524
100.371026890409
100.370630777334
100.37036752073
100.370575320542
100.370980201602
100.371306848236
100.371623907422
100.371879601183
100.372140094577
100.372413415898
100.372403404454
100.372471140464
100.372386530086
100.372211158642
100.372392060841
100.372203151269
100.372452039967
100.371999147178
100.372439019133
100.372029976311
100.371676970725
100.371934210268
100.372070835857
100.371836706256
100.372741000706
100.372104629365
100.369806941914
100.367896380196
100.366585483781
100.365920677485
100.365421692059
100.364917700015
100.36450451929
100.364125703703
100.363851242409
100.363559420716
100.363456472845
100.363372336976
100.363168898067
100.363520006485
100.363213955586
100.363950709251
100.363775445874
100.363961412288
100.363777504087
100.363697332985
100.363894170062
100.36403037947
100.364456940544
100.364017592968
100.364124860217
100.363745978407
100.363360793611
100.36236192589
100.36097407172
100.360806329022
100.359869237955
100.359616544399
100.353777296218
100.355137672721
100.354822067086
100.355541135106
100.355690277793
100.357249633153
100.358406648778
100.357601437206
100.356703980916
100.357409146905
100.357868319394
100.357845452914
100.358158722484
100.358675370246
100.357829251415
100.360315316809
100.360834993497
100.358666666025
100.360421607059
100.360477173662
100.356366502928
100.355890115668
100.354193302275
100.358076870033
100.360823507542
100.364229296292
100.367212676723
100.368669133565
100.36926703097
100.370381389613
100.371110015775
100.371310672655
100.371240615964
100.371684277903
100.371529893918
100.3717599674
100.371770717401
100.371570842154
100.371687448335
100.371440402191
100.371166849279
100.371489416086
100.371655017236
100.371575422161
100.371321426891
100.370914481429
100.370309015887
100.371018123804
100.371128517912
100.37148960793
100.371432772654
100.371658798618
100.371836946096
100.371783427006
100.371516278152
100.371754656674
100.371813378834
100.371395743813
100.371583809473
100.371715345254
100.37127691677
100.371291758838
100.370766660987
100.369888335891
100.368776195509
100.368328837569
100.366419503324
100.368031489145
100.36786238527
100.369052618051
100.369969964369
100.370892077578
100.37133906518
100.371313211975
100.37168618995
100.371519332903
100.371876891503
100.371718228564
100.371677743502
100.371674633441
100.371587461824
100.371502823308
100.37134597491
100.370201498823
100.371091468957
100.371261647738
100.370252491712
100.367610004333
100.368856314736
100.369175453603
100.370515723002
100.371218384004
100.37130986382
100.370717397831
100.368094220974
100.369483506546
100.369996614865
100.37094143082
100.371404966176
100.371064653356
100.370795224816
100.370551316128
100.370104317395
100.368941869502
100.369879665962
100.370907568994
100.37099063611
100.371101139064
100.369533250344
100.37029255167
100.370518009138
100.371257344495
100.371738058879
100.371850935427
100.371847694485