/*--------------------------------*- C++ -*----------------------------------*\
| =========                 |                                                 |
| \\      /  F ield         | OpenFOAM: The Open Source CFD Toolbox           |
|  \\    /   O peration     | Version:  v1612+                                |
|   \\  /    A nd           | Web:      www.OpenFOAM.com                      |
|    \\/     M anipulation  |                                                 |
\*---------------------------------------------------------------------------*/
FoamFile
{
    version     2.0;
    format      ascii;
    class       volScalarField;
    location    "1.4";
    object      p;
}
// * * * * * * * * * * * * * * * * * * * * * * * * * * * * * * * * * * * * * //

dimensions      [0 2 -2 0 0 0 0];

internalField   nonuniform List<scalar> 
79587
(
100.072230801386
100.074175392878
100.07079953466
100.075146527805
100.082188155563
100.082303898235
100.080259592662
100.080784573972
100.080897727454
100.081272059262
100.081559459992
100.081371663438
100.083250050655
100.082938175071
100.08527602224
100.085233819108
100.081915908716
100.07726905075
100.076251002776
100.076247855673
100.07723793721
100.076954652113
100.076172912059
100.077717700625
100.084126707252
100.084025082131
100.078368487406
100.076699809849
100.076673106091
100.075856116667
100.075728797752
100.076796856794
100.0767084988
100.07832348562
100.083786472317
100.083690223529
100.077515860196
100.076131275662
100.076940988561
100.077012102606
100.076109109412
100.076113969363
100.077181669954
100.081746509954
100.084889984384
100.084746551119
100.077848194254
100.077395751468
100.075109189262
100.074400247787
100.07452756339
100.07439476169
100.07380179865
100.072479892206
100.073596917515
100.074914311073
100.075013046268
100.074106150026
100.073140362179
100.071916413277
100.071586988277
100.072177397148
100.072101447344
100.071426046095
100.071928280071
100.073123545495
100.073953592639
100.075039068119
100.075114850391
100.073699884117
100.072621795312
100.073976077287
100.074469409924
100.074574138748
100.074360829373
100.07506603336
100.077604624182
100.078326673598
100.075916961321
100.078818264905
100.081733256893
100.083084613447
100.080762075962
100.080571375945
100.081963669906
100.080244830317
100.077883232364
100.073653382327
100.078930788854
100.067700485622
100.056699239825
100.062467230681
100.06356232013
100.074507117907
100.070177663132
100.070806705913
100.073130916689
100.071255365779
100.069773062564
100.069187765261
100.071907723987
100.073724451192
100.069583881604
100.068821971493
100.071020802487
100.06775975991
100.066648365941
100.067879649296
100.067881379785
100.06669463295
100.067770632197
100.070964439349
100.068696341672
100.069131357503
100.07377001074
100.072345769617
100.06947743902
100.069917470636
100.071305615589
100.073125851549
100.070711233668
100.070018355103
100.074768043969
100.074792618483
100.071773708178
100.07488563675
100.081096754749
100.085785048562
100.078728931653
100.078672224919
100.083477546225
100.099421005817
100.069118684996
100.069640074977
100.053950117602
100.026965679794
100.027901445108
100.023726466593
100.02402465414
100.030311386227
100.061731262622
100.072938713851
100.068643906888
100.068383957137
100.075075597632
100.063293358964
100.063989476419
100.063823164875
100.064055187984
100.071811822119
100.067349429564
100.067331871683
100.071749570002
100.064073657989
100.063887658601
100.064024376993
100.063156309315
100.061859650177
100.063861972412
100.061819696388
100.022188248202
100.024608105702
100.025414759298
100.025049735175
100.024443337854
100.024529426241
100.0260003762
100.02661010292
100.030745510785
100.027994026525
100.02898435291
100.032499055521
100.03250489672
100.029034315731
100.028013471311
100.030559547385
100.03006363527
100.023458001214
100.024274637029
100.030847916112
100.031524147467
100.030120705818
100.029771172479
100.031042952978
100.030946711543
100.030125888388
100.030440737156
100.030632025895
100.025659711825
100.026492970523
100.027732943401
100.027690857646
100.02641953701
100.025517725338
100.026422208242
100.025755435284
100.029947800281
100.031292270427
100.031888028306
100.032043956434
100.031421160741
100.031522187803
100.032178306455
100.032055878715
100.031486481639
100.031673679686
100.03181702514
100.031833860975
100.03101728467
100.030695477326
100.030635903265
100.030889614593
100.030440998181
100.030243281326
100.031490120031
100.029760926895
100.029593936923
100.029783623366
100.029613187624
100.029901968768
100.030217692622
100.030091315161
100.029942665811
100.029722946515
100.029886816015
100.029867742018
100.029868452296
100.029754758289
100.031497917762
100.03145630108
100.031737323997
100.031641888044
100.029753501608
100.027432287711
100.02747648925
100.0273769647
100.027479523215
100.027412910754
100.027225633374
100.02723804059
100.027439719676
100.027478709048
100.027368058383
100.027506424404
100.027465076719
100.027533996544
100.027494675337
100.027482378481
100.029732186212
100.029853147252
100.027529601298
100.025602248056
100.025525911922
100.025572501489
100.025517298262
100.025623299438
100.025731023071
100.025824506896
100.025553769848
100.02530196829
100.02545486435
100.025360374122
100.025485098909
100.02545882508
100.0255627271
100.025551891037
100.025559958381
100.023828817577
100.023870058165
100.023799987005
100.023846584454
100.023805332093
100.023841637461
100.023724750647
100.023970590311
100.023816805857
100.02345722405
100.023638823956
100.023517516559
100.023635315627
100.023620963337
100.023762307395
100.023793018355
100.021932791101
100.022000259529
100.022019020129
100.021916453246
100.02196337818
100.0219116557
100.021905911663
100.021657128917
100.021291402311
100.02130219897
100.021560237782
100.021628998743
100.021517761852
100.021629791221
100.021627390835
100.021846377242
100.019529557426
100.019698398171
100.019795969714
100.019776954701
100.019624045484
100.019674324126
100.019581000626
100.019575792162
100.019521099942
100.018666748898
100.018621052304
100.019270677453
100.019135661281
100.019111345457
100.019199701527
100.019227313824
100.015750905369
100.016325899907
100.016656308714
100.0167854837
100.016646433608
100.016263939502
100.01657856239
100.016443849717
100.01619809914
100.016559161615
100.015007522236
100.014854253286
100.016107697432
100.015568377377
100.015872553788
100.015936540434
100.011011419414
100.009734043648
100.010978378186
100.012008194909
100.012173725324
100.011457707933
100.010396878695
100.011943603745
100.011973954351
100.010326244875
100.01204783864
100.008531318694
100.008263524059
100.011419129095
100.00945106423
100.011052583739
99.9994401050288
99.9986285148536
99.9926872559001
99.9952506787367
99.9992656039483
99.999500932431
99.9960709020849
99.9936452835435
100.000075701851
100.000833133486
99.9940429861168
99.9988257023166
99.9942217734184
99.9937849960297
99.9976838544785
99.9929998094604
100.000104662334
100.007360719514
100.004892736119
99.9977387532901
100.003881055018
100.006041716477
100.00634752725
100.004742226556
99.999024583534
100.006718186377
100.00946923449
100.002393128459
99.9991527853494
100.031352058281
100.054010201989
100.053344750254
100.029709179492
99.9960510164532
99.9970814873527
100.090203468289
100.175692873601
100.113925285082
100.113340119791
100.097535699413
100.084258274954
100.071642222305
100.067616429534
100.06156130018
100.059672943773
100.071605688003
100.064394887887
100.064939761241
100.072827987379
100.061752108105
100.064172711211
100.070911888426
100.075241857284
100.087060097313
100.099429330586
100.19338251766
100.210757659472
100.209338723923
100.190399151301
100.19008955852
100.178599283727
100.201630869992
100.240861828368
100.153479612267
100.152697916223
100.202630697045
100.166365266125
100.191056326906
100.215533542428
100.156693955811
100.157182098372
100.216581610107
100.192592070773
100.168550927486
100.205126177812
100.155084607578
100.157217090969
100.206587771688
100.184017353465
100.193961296719
100.286308966897
100.332477132819
100.301881121793
100.299671925764
100.327395223408
100.298731580065
100.280793181319
100.404362142262
100.43446263884
100.389276364457
100.405339824585
100.403891098786
100.356946617413
100.29990189276
100.327325879168
100.275726398107
100.396545090667
100.430417247709
100.385420060571
100.38564309714
100.311542502073
100.311711155585
100.240997338961
100.290062462421
100.375064294557
100.420719465921
100.38589518451
100.390827831448
100.326331964021
100.278872314846
100.319117632598
100.299202742305
100.303662498807
100.328262660909
100.23897134906
100.239310355369
100.328592985971
100.304893720618
100.300911630139
100.320966924424
100.280767296401
100.328296787769
100.315604199211
100.316460983488
100.334247609793
100.306517230274
100.304608275549
100.364982625686
100.412969845343
100.39504001668
100.408849836412
100.436421523553
100.435739143264
100.405061601742
100.377683609246
100.379614740223
100.454878633259
100.475734240841
100.466871825901
100.465736895878
100.466558576504
100.453451740769
100.438789952873
100.480047989123
100.47895604685
100.476866513199
100.471883364503
100.465979756312
100.462089772129
100.447582301823
100.443591449489
100.445053740197
100.453244773912
100.423953584591
100.422744449582
100.423023371239
100.429652373282
100.450571105614
100.448651357607
100.428404642323
100.386931108596
100.394981721715
100.373227955246
100.406761101314
100.395250626857
100.39542564945
100.40746738702
100.374395908122
100.396028652506
100.388580826038
100.392396356809
100.388966958262
100.390535357372
100.392949356202
100.41213114637
100.452077955092
100.454744354523
100.459035416475
100.466373697152
100.477436770916
100.476171740718
100.481436528984
100.480268027091
100.474783440895
100.473329729734
100.473964856488
100.479113387766
100.476986276473
100.478417601388
100.477715799671
100.479643237657
100.474853600499
100.477107269072
100.474709291506
100.471230516965
100.475313898542
100.476944041371
100.474400464721
100.475085066433
100.476600841253
100.475595415464
100.474117865534
100.470507050086
100.46686172898
100.468390310341
100.459530581905
100.476697806798
100.476891565311
100.473728787441
100.473540488836
100.477128260837
100.470197400848
100.468553712139
100.4728439521
100.454341617992
100.455316823398
100.456706653157
100.472151512563
100.466807089088
100.464853570819
100.46423313641
100.445962985324
100.439839005504
100.445706097113
100.430960121391
100.431177743929
100.446175720889
100.440392747599
100.446674691671
100.429214436202
100.448949433218
100.450710660804
100.430455878194
100.42461829764
100.42611846881
100.431461088017
100.452971517709
100.468660946913
100.473497997431
100.473502444875
100.477557529936
100.481754144547
100.480157159062
100.482555683433
100.483040920285
100.478230124262
100.479692762516
100.476635419555
100.474891965521
100.476428666441
100.478477935221
100.477297764894
100.479125086288
100.479033503151
100.475844923962
100.474610337313
100.473456020504
100.473680896177
100.473430089833
100.471904816167
100.471944515235
100.471196400635
100.472031521482
100.471939647196
100.473048060306
100.475478079186
100.47425185341
100.473874931408
100.475563598788
100.475213731233
100.47584763056
100.476103458762
100.474043399808
100.476042052171
100.47600536213
100.47652817805
100.474996547433
100.476669091937
100.475610625237
100.476662579431
100.476862803279
100.478842130507
100.472088121494
100.472687392067
100.474392724758
100.473706863121
100.476628969909
100.471003532662
100.431798824132
100.427896362001
100.431040643061
100.44281490019
100.444435901374
100.433928708225
100.431883887706
100.428875279479
100.427100885294
100.422364584178
100.426085917383
100.417208387384
100.425347182524
100.444223732219
100.432849906736
100.434871307199
100.447592904627
100.470395077597
100.470293894966
100.473808327915
100.46216693599
100.464652279408
100.465826601422
100.465896949694
100.457332920525
100.44697488652
100.443714207483
100.42134414619
100.427425259014
100.434502467218
100.432663973115
100.426862329776
100.419943479754
100.432303050437
100.420302332609
100.420132460203
100.431483385747
100.436268266445
100.427717988952
100.426545454543
100.449830547664
100.481907217257
100.482693014846
100.470085489269
100.486097948349
100.468147878136
100.493845791736
100.47630368591
100.461627504016
100.464410430703
100.464074569188
100.46727808871
100.458381974755
100.462535368277
100.447559322814
100.428969582119
100.423027529243
100.428608931567
100.40818610929
100.415154200183
100.439015318561
100.435276522236
100.42810365911
100.422088200198
100.434274630889
100.423127850701
100.421787621301
100.431159888227
100.422066007601
100.42345277348
100.427268937484
100.431179679493
100.429538251362
100.452556837463
100.483707860238
100.484205631298
100.472057137329
100.488725733952
100.484394692403
100.439714748038
100.436141254252
100.43493918088
100.428649885198
100.43809193353
100.482359634088
100.479236080089
100.471964383498
100.485102628892
100.479973225902
100.460767769813
100.440424063394
100.46016837975
100.464070447538
100.46160813219
100.461906767894
100.46290141791
100.448058129134
100.429614705507
100.430155933401
100.429517053321
100.434832428586
100.435990838758
100.431744594825
100.437075590033
100.428640565832
100.421576735559
100.425855684191
100.43684127972
100.430379284832
100.442720420266
100.430787063325
100.431708126063
100.438863075872
100.427832289679
100.429982483243
100.424597796762
100.440036565769
100.443671576549
100.447843036241
100.444257916042
100.455432789961
100.4766972352
100.474771248088
100.478346530458
100.471892580157
100.497180568724
100.481321088943
100.430690387004
100.43343182543
100.432114024589
100.464795424378
100.463529949755
100.484723988316
100.480960170434
100.481364838788
100.464597551818
100.468165423985
100.459562428229
100.444895411533
100.42251601605
100.42386796777
100.42982644217
100.435526834631
100.436531835336
100.44271109782
100.44193801773
100.435670410048
100.437024047872
100.451193735824
100.445614318279
100.449805481086
100.449335784884
100.444428686319
100.440020956473
100.439967093315
100.443679516161
100.44793488718
100.448225639932
100.438095512792
100.443556367587
100.446382868951
100.435371933651
100.428204794041
100.427004669739
100.431742671387
100.43968581872
100.451025974849
100.471154970498
100.467090314755
100.46502810027
100.479914768167
100.48164253862
100.487341788515
100.473912337559
100.465958126691
100.464378966622
100.485580185887
100.45980844456
100.455142652147
100.463162919159
100.461280905101
100.454795241078
100.470905721566
100.471654775531
100.473478018399
100.473671406072
100.472543850353
100.471870438127
100.473471023609
100.475273447718
100.475841813095
100.475974945652
100.475848542643
100.476826251135
100.478914160159
100.479423559431
100.479208532235
100.479529988518
100.480254112454
100.486506350565
100.499854682202
100.529362981755
100.527796148758
100.473760298996
100.428630737519
100.38258689073
100.356373469822
100.375663078688
100.373550123067
100.371923629771
100.372423931496
100.373374081182
100.374292793082
100.375371353977
100.376739873687
100.378298727701
100.379842901991
100.381152698648
100.382058344663
100.382464153226
100.382336993616
100.382065444637
100.381667244184
100.38113872593
100.380447692722
100.379529221083
100.378387035
100.376957178428
100.375194294015
100.373249829589
100.371357311924
100.369717527226
100.368459067751
100.367567920289
100.367029583973
100.366815101271
100.366889847548
100.367252291539
100.367940774909
100.369019959997
100.370486440233
100.372190295005
100.373641576834
100.374124629118
100.373973265859
100.373963009638
100.374017693993
100.374152261657
100.374378434356
100.37436226202
100.374475428666
100.374514934634
100.374753560384
100.374903428792
100.375092222864
100.375286961852
100.375297202137
100.375419295689
100.375302730874
100.375277689802
100.375217830375
100.3751584262
100.375090810914
100.375022350501
100.3749107597
100.374836129484
100.374706116551
100.37458080302
100.374435951333
100.374276227604
100.374073572741
100.374043908433
100.373993073125
100.374265606852
100.374408586187
100.374558782175
100.374683122645
100.374820989373
100.37490757417
100.375003189901
100.375081026371
100.375152784539
100.375211345114
100.37528380156
100.375372865033
100.375170721919
100.375038421669
100.374788275378
100.374651445089
100.37441395349
100.374412732583
100.374300730141
100.374319336144
100.374071507618
100.373956943444
100.373779078136
100.373859193265
100.373993172461
100.374242968964
100.374240374719
100.374343179961
100.37433234057
100.374567180504
100.374716639758
100.374986765075
100.375110473412
100.375053997434
100.37492413472
100.374620603759
100.374467748876
100.374256870407
100.374269739317
100.374174581577
100.37414139139
100.373918187845
100.373816604751
100.373655935066
100.373711077977
100.373843146726
100.374038410112
100.374093775163
100.374183730769
100.374183217876
100.374380417421
100.374515262029
100.374836302866
100.375000656407
100.374925821598
100.374750330185
100.37440713608
100.374294228356
100.37411049552
100.374071990577
100.374011583356
100.373950763427
100.373775413017
100.373688839624
100.373579466988
100.373571064203
100.373700753956
100.373852212028
100.373903068992
100.373890582276
100.374135669708
100.374176592423
100.374334583614
100.374663054575
100.374851265876
100.374769510575
100.37456280539
100.374212557795
100.374030596861
100.373967899018
100.373790411711
100.373816076699
100.373763261677
100.373638082685
100.373572079541
100.373518192984
100.373434180369
100.373564507245
100.373669409828
100.373713690114
100.373709661111
100.373854323827
100.373913663459
100.374067972035
100.374431786353
100.374659704945
100.374511238504
100.374286174444
100.373909428931
100.373790306666
100.373784346623
100.373679951707
100.373641815466
100.373607246164
100.373582513077
100.373504075346
100.373459558017
100.373414451577
100.373313505053
100.373434536437
100.373506760308
100.373534657787
100.373576076336
100.37360284579
100.373721594186
100.373836751046
100.374174394583
100.374382919172
100.374243025475
100.374036551173
100.373704399882
100.373592357676
100.373513104433
100.373490337405
100.373453228199
100.373441169625
100.373377536707
100.373347810905
100.373300070112
100.373212552977
100.373311427503
100.373373029202
100.373366892979
100.373412969476
100.373443149585
100.373499476666
100.373564988418
100.373892755869
100.374100554056
100.373874408966
100.373723041506
100.373438725535
100.373421635752
100.373352617652
100.3733217851
100.373292417949
100.373307008495
100.373253873638
100.373243320755
100.373180175351
100.373113792467
100.373182783846
100.373212075742
100.373210702776
100.37324493147
100.373268262323
100.373313972234
100.373303612131
100.373579762715
100.373727851144
100.373758879135
100.373630378156
100.373529735328
100.373525578648
100.373336590559
100.373235115402
100.373209835913
100.373102561652
100.373187724923
100.373144278732
100.373119560025
100.373119416879
100.373101627328
100.373035162807
100.372970480212
100.372866883732
100.372669272722
100.372853406252
100.373006496421
100.373007208352
100.373043261876
100.373040954841
100.373056162271
100.373075363533
100.373109222258
100.373031325183
100.373200236717
100.373283032105
100.373507474797
100.373389027668
100.373396389024
100.373338083853
100.373149744921
100.372986171254
100.372984563597
100.372919552065
100.37317704551
100.373114244828
100.373065962044
100.372964851555
100.373005551187
100.372970587768
100.372968089074
100.37292988268
100.372975447777
100.372946888562
100.372945641443
100.372789060719
100.372357656029
100.37277776351
100.372941444664
100.3729150052
100.372933658154
100.372922916816
100.372901922104
100.372918265879
100.372952505621
100.372925526991
100.373007528391
100.372977132448
100.372808169315
100.372821474942
100.372738094878
100.372763749297
100.372658607356
100.372772377092
100.372905031239
100.372822596627
100.372868643694
100.372883523841
100.372886012938
100.372891783814
100.372898572553
100.372884953056
100.372893758513
100.372742898648
100.372248693501
100.372758726886
100.372892007545
100.37287219005
100.372864730374
100.372862189254
100.37284894633
100.372843657328
100.37278957402
100.372730566515
100.372807174228
100.372766821856
100.37276975519
100.372758811024
100.372984797939
100.372962100648
100.373042303056
100.373111232785
100.373184728629
100.373225951241
100.373264617256
100.373299669428
100.373344388407
100.373405493454
100.373492117875
100.373588695775
100.373673290093
100.37375900416
100.373863783615
100.373954067068
100.374047939805
100.374143820011
100.374243012397
100.374325849033
100.374557382554
100.37464516576
100.374888488653
100.374959581097
100.375177027749
100.375345008668
100.375329839087
100.375488382431
100.375419151038
100.375335217874
100.375332673931
100.375118077698
100.375004054375
100.374954302843
100.374825111811
100.374731390552
100.374635095907
100.374538795332
100.374414645886
100.374315905452
100.374212006341
100.37409960775
100.373942664024
100.373841222195
100.373723533327
100.373833014127
100.373820108679
100.374076685774
100.374235273052
100.374370835057
100.374455297131
100.374565693076
100.374697314231
100.374787427426
100.374861291981
100.3749569796
100.375060626292
100.375132913722
100.375184304728
100.375320712474
100.375443673535
100.375472726325
100.375361724264
100.375166741077
100.374840709791
100.374430499566
100.374536889534
100.37461844899
100.374942502821
100.375235478232
100.375403877999
100.375516274364
100.37547406071
100.375385242788
100.375237360089
100.374992004742
100.374654870208
100.374573197428
100.374496778225
100.374304052535
100.374168504807
100.373837519926
100.373656779904
100.373515390677
100.373358773575
100.373229703432
100.373057275794
100.37293189348
100.372796987508
100.372659310852
100.372507077619
100.372725176507
100.373024831292
100.373215354984
100.373302161375
100.373432248671
100.373566152716
100.373720908796
100.373818407549
100.373969082357
100.374088522718
100.374265609919
100.374608884562
100.374620539443
100.374792201313
100.374922708602
100.375204559075
100.37503478775
100.374953414518
100.375098456337
100.374911194013
100.37468164667
100.374139822848
100.374040260951
100.374222299106
100.374435055877
100.374426946903
100.374468881835
100.37459816355
100.374679985671
100.374767978932
100.374991588659
100.375277166028
100.375441274447
100.375546452592
100.375523595134
100.375422162498
100.375212399236
100.3749862225
100.37489583759
100.374689906878
100.374393764345
100.373991185614
100.37390906566
100.373744170755
100.373500423209
100.373293706244
100.373142650001
100.372975769857
100.372762081178
100.372559108129
100.372362497646
100.372233062406
100.372037287481
100.371863057234
100.371634848518
100.371464418757
100.371326375173
100.371240242211
100.371033849088
100.370857913514
100.370988136818
100.371410323363
100.371630483764
100.371748719943
100.371747457892
100.371871557635
100.372014298712
100.372209465914
100.372359499697
100.372549407663
100.372683182705
100.372862545001
100.37302657187
100.37325793182
100.373515617858
100.373667888472
100.374017775644
100.374042906531
100.374222866775
100.374037476012
100.374294896503
100.374536047
100.374555849697
100.374521293818
100.374146992863
100.374215013147
100.374234200037
100.374243573793
100.374416084293
100.374581588419
100.374564599963
100.374723490765
100.374715648083
100.374846659761
100.375040310104
100.375333401739
100.375481865249
100.375598677851
100.375539570651
100.375544448105
100.375508385753
100.375339243448
100.375076855044
100.374770320639
100.374467169364
100.374087638793
100.373639248181
100.373451837089
100.373364857951
100.373156687641
100.373042140113
100.372898097978
100.372744141017
100.372591224531
100.372463524986
100.372211562933
100.372144394969
100.371938835749
100.371736781856
100.371575938796
100.371308173564
100.371066133519
100.370829620186
100.370668870714
100.370467029051
100.370683774637
100.370972451524
100.371222847071
100.371453533019
100.371697505904
100.371810263503
100.37199612347
100.372203353994
100.37241496504
100.372516097833
100.37269920669
100.372890512516
100.373114693333
100.37325160934
100.37350697743
100.373489796995
100.373264535525
100.373502038416
100.373641711898
100.373875118462
100.373785287339
100.373881700033
100.374890162346
100.374730370698
100.37459004725
100.374190724473
100.37416300038
100.374393013473
100.374424438315
100.374644606842
100.374610800371
100.374728729019
100.374742182165
100.375048291443
100.375223230571
100.375493501582
100.375652995019
100.375583681388
100.375648399456
100.375586234676
100.375547719338
100.375357474244
100.375142536293
100.374765709906
100.374512842962
100.374327966215
100.374114436106
100.373866574071
100.373576187241
100.373243393597
100.373227116713
100.373148013412
100.373000621119
100.373035150081
100.37284972672
100.372714145773
100.372622978804
100.372481845891
100.372612557942
100.372400727368
100.372191839672
100.372040984723
100.371853331241
100.371645478929
100.37136193044
100.371095999157
100.370834677579
100.370550781933
100.370215434761
100.369853828727
100.369503540413
100.369037625847
100.369311105455
100.369750195798
100.370138804855
100.370360682108
100.370591460597
100.370852410164
100.371110693115
100.37139668436
100.371572996139
100.371758470465
100.371966051318
100.372272458181
100.372461761673
100.372439809675
100.372476587102
100.37262345643
100.372770137368
100.373031202039
100.373128036737
100.373114126569
100.372973904676
100.372948608844
100.372999754437
100.372997573329
100.373018912926
100.374050073219
100.371379376445
100.370244294282
100.369569171064
100.368715577393
100.368046657084
100.367542012862
100.367103482318
100.366869440205
100.366571751813
100.366081826617
100.365449100989
100.362838596409
100.360943548385
100.365169024554
100.365686672821
100.366149641948
100.36707936189
100.368371437614
100.369181762523
100.369830147591
100.370339558788
100.370774867189
100.371170028795
100.371396802517
100.371728559524
100.372422984435
100.371123132485
100.373002193241
100.370381825747
100.373934770586
100.373768872458
100.374159296181
100.374423769944
100.374525880165
100.374570148211
100.374748356382
100.37471312899
100.374133451184
100.373189689942
100.37203294778
100.370457050623
100.368599886496
100.367587187345
100.369931749671
100.371062631036
100.368595654832
100.36512689433
100.362581452316
100.361737349468
100.351796349848
100.354996946125
100.354387545706
100.357934669829
100.359345376483
100.361218547357
100.363687408408
100.362667770621
100.359621992317
100.359894767871
100.358520960805
100.36064988875
100.362185461928
100.362631434042
100.363279896186
100.364458048995
100.364434472567
100.367309323278
100.368656166921
100.369917798006
100.371666781948
100.372576917232
100.372716323982
100.372787511779
100.372738582801
100.373225309008
100.373416564713
100.373573130908
100.37369420017
100.3738014975
100.373941847314
100.374139150826
100.374352256375
100.374200902065
100.373945652334
100.374208564849
100.374172306371
100.374305430451
100.374462560699
100.374270387725
100.374355696734
100.37455703736
100.374654077538
100.374609765896
100.374672025432
100.374938250592
100.375123093129
100.375381162295
100.375523890711
100.375648920037
100.375672076234
100.375478260482
100.375251351115
100.374957571306
100.375023695947
100.375152942293
100.375424898809
100.375569340614
100.375620306976
100.375634826919
100.375550767734
100.375402625738
100.375357393213
100.375308876876
100.375146326077
100.37491691959
100.37457308041
100.374152118457
100.373949457767
100.373782778786
100.373653217083
100.373453216522
100.373343902644
100.373154490262
100.373325209492
100.373227825335
100.373374516638
100.373315258346
100.373210614533
100.373050184382
100.373214130359
100.373072017674
100.372981832179
100.372845597689
100.37270144775
100.372528739872
100.372327823797
100.372440595554
100.372207621954
100.372000112831
100.371784529399
100.371543156057
100.37126485084
100.370987410138
100.370483933254
100.370732688083
100.371077300679
100.371345867919
100.371585502196
100.371820858642
100.372042479996
100.372276107692
100.372110266143
100.37215180761
100.372348386999
100.372533604001
100.372757457833
100.372875567912
100.373043217478
100.372875368678
100.372931985491
100.373116627858
100.373193780863
100.373153261793
100.373085461585
100.372911519742
100.372718327235
100.37241792314
100.372414703434
100.372467604606
100.372841838303
100.373098576917
100.373518528155
100.373803123394
100.374119599393
100.37443134869
100.374589192625
100.374390674159
100.37443834757
100.374541506408
100.374746095798
100.374702568662
100.374833538767
100.374893693802
100.375111966167
100.375453431258
100.375337410735
100.375464875285
100.375550593131
100.37546725966
100.375484342711
100.375434963389
100.3752414246
100.375015135156
100.374902518103
100.374638530561
100.3742999055
100.374044889987
100.373671589902
100.373562238358
100.373439972669
100.373421771472
100.373357655713
100.373418681209
100.373327467631
100.373557744418
100.373432881846
100.373618702881
100.37352234258
100.37350536948
100.373325871324
100.373426848255
100.373306600872
100.373223099507
100.373145612977
100.373050755082
100.372848048668
100.372836554926
100.372665332048
100.372481920976
100.372271193068
100.372062007482
100.37184418262
100.371577196377
100.371286866866
100.370983923806
100.370652038969
100.370252987244
100.369874002339
100.370233015124
100.370622538403
100.370822173245
100.371139279692
100.371435932845
100.371697285938
100.371922967288
100.372153983443
100.372379404651
100.372642392665
100.372829022848
100.372703604544
100.372800307114
100.372928122851
100.373008270098
100.373133131017
100.373334403822
100.373213850338
100.373220194449
100.373289197344
100.373458749003
100.37333349461
100.373297853892
100.373049028989
100.372619059937