/*--------------------------------*- C++ -*----------------------------------*\
| =========                 |                                                 |
| \\      /  F ield         | OpenFOAM: The Open Source CFD Toolbox           |
|  \\    /   O peration     | Version:  v1612+                                |
|   \\  /    A nd           | Web:      www.OpenFOAM.com                      |
|    \\/     M anipulation  |                                                 |
\*---------------------------------------------------------------------------*/
FoamFile
{
    version     2.0;
    format      ascii;
    class       volScalarField;
    location    "1.5";
    object      p;
}
// * * * * * * * * * * * * * * * * * * * * * * * * * * * * * * * * * * * * * //

dimensions      [0 2 -2 0 0 0 0];

internalField   nonuniform List<scalar> 
80683
(
100.067180739553
100.069150034528
100.065989662105
100.070315981373
100.077342402314
100.077478516732
100.075531441034
100.076081886411
100.076066757339
100.076446562736
100.076943857215
100.076712596743
100.078437513586
100.078052815751
100.080593433421
100.080595166075
100.077166546557
100.072352309994
100.071266401413
100.071217957196
100.072221979836
100.072078137247
100.071295160588
100.072735318179
100.079182526829
100.079232421681
100.073518560027
100.071712411542
100.071607155058
100.070894350421
100.070762665144
100.071748206161
100.071698637884
100.073448878712
100.07899747636
100.078827904366
100.072630467478
100.071249103557
100.071981716173
100.071935251308
100.07105305136
100.071102719025
100.072226080333
100.076964915514
100.080236252198
100.080087257832
100.073144674608
100.07263065815
100.07043689597
100.069918884474
100.069845757838
100.069475110334
100.068940598941
100.067804675928
100.068896119289
100.070047242186
100.070209676261
100.069373868483
100.06833987473
100.067188134662
100.066816379825
100.067406576482
100.067332239069
100.066656314932
100.067209675835
100.068339742375
100.069316236174
100.070297994067
100.070270465514
100.069079637822
100.067980744227
100.069156973657
100.069583247205
100.069913353092
100.069916483264
100.070417633075
100.072854989023
100.073562921834
100.070956928098
100.074112698573
100.077230096319
100.0788826919
100.076725300767
100.076474683483
100.077638306205
100.075632854112
100.073153785274
100.068958360001
100.074259721294
100.062357518829
100.050329915818
100.056048391228
100.057168163845
100.069355578073
100.065255382731
100.066470618872
100.068625641918
100.066629912712
100.065215813159
100.064702608065
100.067276488081
100.068776570807
100.064712391121
100.063772020621
100.066108247236
100.063314380425
100.062195451476
100.063225410744
100.063229650894
100.062246247436
100.063329035523
100.066059073693
100.063730233515
100.064529257493
100.069012798223
100.067801639403
100.065036739336
100.065402413262
100.066731095982
100.068687600183
100.066422018164
100.065128827284
100.06967671585
100.069710367379
100.066712685543
100.070252791107
100.076488338877
100.081886782201
100.075253394896
100.075160326857
100.079441415917
100.094737094443
100.063350856173
100.06389242612
100.047769782602
100.021311934876
100.022223451709
100.01776077126
100.018164485014
100.024546941495
100.055299269369
100.067645362161
100.063753193224
100.063555981039
100.070454695213
100.056733047775
100.057483538992
100.057413383829
100.057606158296
100.067314442036
100.062466442827
100.062455224496
100.067260251746
100.057631660931
100.057453948624
100.057480478272
100.056564821635
100.055398519855
100.057450620852
100.055668038903
100.016169933726
100.019336624168
100.020334672724
100.020182436394
100.019384167461
100.019523114084
100.02097725739
100.021627795875
100.024951053935
100.02206711294
100.023075848208
100.026665548424
100.026668977005
100.023083076426
100.022021842873
100.024703984519
100.024208992258
100.017490309818
100.01920585677
100.025981487954
100.026414668954
100.0252888439
100.025160873873
100.026255988674
100.026131867079
100.025232095286
100.025610796813
100.025904583562
100.020678697037
100.021452138414
100.022652983503
100.022609200994
100.021331778059
100.02045340883
100.021376161265
100.020644224503
100.024984283182
100.026242715373
100.026958964895
100.027205650867
100.026370248913
100.026388079383
100.027294719546
100.027133472371
100.026464289462
100.026714035263
100.026913540901
100.026926317105
100.02619125108
100.025784854943
100.025720731166
100.026003227296
100.025542804621
100.025332414182
100.026470072033
100.024672379226
100.024494647843
100.024679505651
100.024833967613
100.024315708153
100.024271589717
100.024829107142
100.024800205314
100.024606297516
100.024851273114
100.024865493222
100.024888169575
100.024764662671
100.026546858221
100.026491622194
100.026783446949
100.026662360207
100.024696129077
100.022383588084
100.022381442274
100.022219936342
100.022197983698
100.022177831927
100.022153604765
100.022066752413
100.022080184757
100.022258855961
100.022245372105
100.022486163192
100.022485091179
100.022577438106
100.022544854427
100.022521480941
100.024730118143
100.02483029063
100.022533396976
100.020684778011
100.020526429075
100.020471754831
100.020295756523
100.020251698284
100.020045080227
100.020470480208
100.020465279972
100.020053942217
100.020291579222
100.020297611386
100.020534411381
100.020581041864
100.020725209878
100.020717871732
100.020699309735
100.019133558802
100.019066049465
100.018854998544
100.018728824638
100.018483768165
100.018430656063
100.018158124589
100.017977097659
100.018056077349
100.01826289993
100.018484278444
100.018536574232
100.01880515616
100.018919459321
100.01912439157
100.019156803519
100.017627294886
100.017578800141
100.017384748512
100.017056839512
100.016810887458
100.016428491389
100.016281729782
100.016112823039
100.015570297588
100.015621903033
100.016154955123
100.016397865449
100.016628845026
100.016993727283
100.017206210267
100.017525046004
100.015741679199
100.015961539315
100.015850383627
100.015414432371
100.014874145631
100.014448726956
100.013847680684
100.013522879419
100.013373049174
100.012442826677
100.012538059134
100.013507041365
100.01378755333
100.014315049381
100.014877030896
100.0152512336
100.012550382939
100.013393573748
100.013798676804
100.013562407985
100.012733342963
100.011715552369
100.011260788307
100.010299100145
100.009338753536
100.009289696816
100.007588501886
100.007792012676
100.009790743561
100.009999897394
100.011178031701
100.012125662019
100.00827148026
100.007934098439
100.009714562675
100.010618365627
100.010112600002
100.008516349902
100.006180467579
100.006422665397
100.004965930103
100.002201907352
100.003232014372
100.000066439195
100.00012016421
100.003886621237
100.00352102228
100.006718798284
99.9948203813155
99.9966135308069
99.9925905439777
99.9960802074984
99.9997944978652
99.998821237177
99.9938162550577
99.989476309759
99.9934609930743
99.9919734930514
99.9834466270237
99.9868921010116
99.984154743548
99.9844090602744
99.9882710033214
99.9861808691314
99.9963632579653
100.006040742048
100.008014953216
100.004452719427
100.012307166986
100.01327449152
100.011445432608
100.008269592024
99.9988329242868
100.002398876581
100.001345697227
99.9923258585617
99.9862021816144
100.020250762432
100.04370835115
100.044450749423
100.022486087196
99.9880015230909
99.9871338058233
100.081322909915
100.164383391002
100.103954917625
100.105065239959
100.092988046507
100.079812187023
100.0727172796
100.069331828951
100.070788348158
100.07685642848
100.091331583186
100.078668332721
100.076200331866
100.084289199201
100.068122913311
100.062383947826
100.06276837148
100.066889234518
100.075939522583
100.090176921123
100.184060194309
100.203453468423
100.20445924075
100.186753287781
100.19131524563
100.187086709012
100.213404720652
100.258594097665
100.164096864078
100.172603368888
100.230292993089
100.192894484289
100.220107887974
100.244567436008
100.181679069941
100.177623155102
100.23662548936
100.209885716476
100.18061306448
100.217421237525
100.160198138587
100.154156596159
100.204450855946
100.180088990031
100.186875231463
100.2821294215
100.328352134778
100.294931147652
100.295564323714
100.330656163604
100.304813649988
100.285957711242
100.395206949977
100.423961464706
100.392856695294
100.413990201618
100.415524498185
100.369239306916
100.310353284613
100.348752349845
100.291705080028
100.400188964166
100.426770083525
100.401812075362
100.415862763537
100.441948036915
100.394533819954
100.331325047517
100.343021781118
100.266029805871
100.305252972673
100.386965498153
100.426772400586
100.446357622604
100.456870704134
100.464959584565
100.469268030766
100.470979297547
100.471751478757
100.47209114231
100.472209779657
100.472273037082
100.47237598949
100.472535995074
100.472693508084
100.472861826818
100.473027902929
100.473132700289
100.473335568538
100.474091668059
100.475781488669
100.479498289897
100.486795528866
100.501948503135
100.524874005594
100.564195301973
100.558304043718
100.494817807762
100.439777787566
100.384186831748
100.352677744333
100.374837859674
100.372931135531
100.37091151621
100.371541698837
100.37261370878
100.373601199858
100.374782477106
100.376346536638
100.37821170138
100.380167148002
100.381946400641
100.383288100897
100.383975471861
100.383000236227
100.381800071192
100.380405597417
100.378853601984
100.377162223962
100.375341676944
100.373470172702
100.371685973448
100.370116810181
100.368826786638
100.367792898377
100.366980081754
100.36635511485
100.365929195537
100.365740404157
100.365847878455
100.366325662805
100.367244617303
100.368580475843
100.370132964661
100.371496366316
100.372065598025
100.372038367511
100.371954056892
100.372111748413
100.372196527442
100.372266981175
100.37231512565
100.372337384375
100.372474483206
100.372565062514
100.372857833968
100.373019715823
100.373156176227
100.373117112009
100.373046852602
100.372956193421
100.372871518668
100.372750206731
100.372768104811
100.372717887594
100.372924605828
100.373023811753
100.373081742174
100.372926285782
100.372756263049
100.372458158928
100.372342169372
100.372225238713
100.372210591915
100.372178459907
100.372107403127
100.37203875313
100.371954913822
100.371913494539
100.371809712871
100.371962956769
100.372016922477
100.372079033938
100.37211643306
100.372141659352
100.372220275818
100.372316798512
100.372621225208
100.372816127587
100.372983214815
100.372828111381
100.372667906294
100.372467308247
100.37217735135
100.372126397718
100.372053407832
100.372014638655
100.371981324394
100.371937167473
100.37189425453
100.371829460641
100.371798086481
100.371694050445
100.371827696613
100.371860764445
100.371898790261
100.371921245958
100.371959814932
100.372035380368
100.372084992225
100.372335658268
100.372518279313
100.372644072494
100.372637314648
100.37252158898
100.372325195226
100.372121164061
100.372048590096
100.372029764242
100.372306445881
100.372482593109
100.37235054284
100.372199539977
100.371969637126
100.371909111285
100.371858259703
100.371840415882
100.371821470143
100.371791305205
100.371763396356
100.371707890598
100.371662655359
100.37158424525
100.371704239775
100.371723210049
100.371735445558
100.371767661444
100.371795664287
100.371820557523
100.371837665148
100.372054266579
100.372190639211
100.371979397516
100.371869760846
100.37172270177
100.3717506287
100.371716382199
100.371682661439
100.371661811886
100.37166306938
100.371635901569
100.371562486297
100.371504784044
100.371469451942
100.37158033499
100.371597518667
100.371604947939
100.371619684804
100.371631991239
100.371647593357
100.371632686706
100.371755279008
100.37180365108
100.371853671768
100.37170439012
100.371670148289
100.371597637603
100.37158464769
100.371563560437
100.371586206541
100.37154173245
100.371592499307
100.371555138892
100.371537424048
100.371526906851
100.371516097287
100.371446995362
100.371333906592
100.37136251549
100.371450170741
100.371433285618
100.371457905657
100.371453191526
100.371493211497
100.371486470518
100.37152822922
100.371454507194
100.371598179754
100.371454462799
100.371401924736
100.371178669376
100.371224874643
100.371169700894
100.371391796953
100.371383447604
100.37145812237
100.371417429703
100.371444832302
100.371473949113
100.37143757317
100.371379853212
100.371424673258
100.371384380743
100.371386287864
100.37129112263
100.371213323217
100.371023769597
100.370507677733
100.371014351182
100.371235936706
100.371274852077
100.371342769215
100.371346361916
100.371367436531
100.371400555563
100.371404534501
100.371394252489
100.371427602493
100.371334651237
100.371242892621
100.371181729816
100.371072208798
100.371291104135
100.371116857742
100.371290512614
100.371381689806
100.371309248739
100.371344582364
100.371352441496
100.371331367224
100.371305592711
100.37130072037
100.371231657939
100.371190274656
100.37097103565
100.370271066907
100.370986150338
100.371180924848
100.37121813682
100.371267303315
100.371276696747
100.371299022271
100.371313099273
100.371307480738
100.371242125472
100.371303714536
100.371140945467
100.371139150375
100.371257688589
100.371315858198
100.371286169728
100.371155312063
100.371108383853
100.37075112936
100.370535674514
100.370891262408
100.370802276393
100.371135272035
100.37090883706
100.371171903445
100.371260923208
100.371250166969
100.371259376615
100.371252084664
100.37124027273
100.371236241623
100.371207965981
100.371193703073
100.371150378504
100.370978428418
100.370247978459
100.371045154176
100.371133348579
100.371175543347
100.371217439183
100.37120065378
100.371273470999
100.371266597756
100.371332432812
100.371318855988
100.371330979617
100.371367868596
100.371422264855
100.371464255441
100.371508634101
100.371432510073
100.371453240652
100.371498749083
100.371550007557
100.371607173557
100.371672960712
100.371739185413
100.37181590213
100.371889935392
100.371978197234
100.372059927862
100.372160476336
100.372292256118
100.372361853398
100.372423945655
100.372431653651
100.372572864008
100.372671686657
100.372958774619
100.373108689956
100.373235456362
100.373234361703
100.373149280292
100.373018233523
100.372740433747
100.372506358555
100.372383815848
100.372263997186
100.372170886833
100.37222707086
100.372325887938
100.372515110677
100.372623147565
100.372918175458
100.372816159349
100.372672050013
100.372470755785
100.372271384427
100.372225696934
100.372072851866
100.371936873945
100.371773883351
100.371628401872
100.371638750674
100.371711144105
100.371940636739
100.37217143338
100.372300086986
100.372406053104
100.372545927497
100.372479241134
100.372322762891
100.372105052847
100.371906163552
100.371863046639
100.371724033147
100.371617741425
100.37152374393
100.371335818849
100.371078779898
100.370794563858
100.370667755797
100.370420364645
100.370517058942
100.37065887629
100.370981777179
100.371266668324
100.370973734084
100.370729292671
100.370559256286
100.370323082686
100.370585182611
100.370565744626
100.370895026984
100.370945449135
100.370841187787
100.371023024199
100.371102899722
100.371369072808
100.371344240071
100.371380124363
100.371385324096
100.37136577178
100.371588456695
100.371629373123
100.371674437151
100.371691575028
100.371736404005
100.37177301042
100.371832801439
100.371890671279
100.371963801979
100.372022244645
100.372104959308
100.37217805427
100.372246719337
100.372385969489
100.372460335612
100.372524918441
100.372512866267
100.37268180306
100.37279212665
100.373066641936
100.373184397232
100.373325439153
100.373286602852
100.373294215581
100.373302294871
100.373119412855
100.372897945516
100.372772489129
100.37264700026
100.372326778074
100.371932963812
100.371762744705
100.371643523017
100.371453388656
100.37131521934
100.371181474494
100.371063401875
100.370924686526
100.370826671556
100.370711008066
100.370832021743
100.371025958399
100.371213302203
100.371352001196
100.371487034379
100.371570126382
100.371694536932
100.371802426436
100.371930254981
100.372038668494
100.371867693042
100.372095526173
100.372369897502
100.372351775218
100.37255721464
100.372471614248
100.372311628362
100.372042416147
100.372132289128
100.372252764044
100.372268637524
100.372347385553
100.372487731066
100.372548940306
100.372613781443
100.372612902259
100.372796422975
100.372893489951
100.37314543673
100.373250203852
100.37336698864
100.373350110412
100.373371280241
100.373197089231
100.373015528277
100.372732822296
100.372415476357
100.372085585507
100.371527189125
100.371276688384
100.371109214004
100.370939088053
100.37073622681
100.370565025286
100.370383404397
100.370232776551
100.370113199224
100.370327599259
100.37053439183
100.370760509103
100.371094088028
100.371151130533
100.371358765593
100.371168276511
100.371403021749
100.371595307026
100.371437143461
100.371780148307
100.372108802174
100.37230018184
100.372330541259
100.372255029818
100.372351483173
100.372423499203
100.37258035161
100.372623073664
100.372698521575
100.372705656518
100.372884256503
100.372977786818
100.37321259467
100.373320064467
100.373451166387
100.373433136678
100.373460885729
100.373294375417
100.37314038112
100.372874201666
100.372540711988
100.372244196897
100.371726701504
100.371505660656
100.37119583853
100.371004693433
100.370942232796
100.3707078975
100.370540883399
100.370356618484
100.370186750886
100.369948360598
100.36971246193
100.36949742158
100.369310281751
100.369113262431
100.368854989207
100.368630518781
100.36895175869
100.369251131667
100.369438249284
100.369611713286
100.369794841526
100.369993719221
100.370245766178
100.370464458959
100.370622483328
100.370763072058
100.37098605037
100.370836860613
100.370667366441
100.370238573885
100.370288256049
100.370493402437
100.370468660232
100.371062365893
100.371425099076
100.371879860827
100.372127733458
100.372161030367
100.372103270824
100.372193825505
100.372267269537
100.372115717735
100.37215119124
100.372243933151
100.372287219205
100.372404326528
100.372505722235
100.372684220131
100.372701144425
100.372785611256
100.372790588598
100.372967606704
100.373066266167
100.373289736494
100.373404263878
100.373567939622
100.373487202568
100.373572240101
100.373408284556
100.373247520097
100.372979278694
100.372669868104
100.372364715043
100.371867238476
100.371637709402
100.3712238237
100.371168615919
100.371003200376
100.37104817757
100.370980291617
100.371088196129
100.370904561518
100.370717807509
100.370559416127
100.37037854
100.370173589258
100.369919511879
100.369676515668
100.369429658984
100.369178962985
100.368846038498
100.368477793695
100.368144324714
100.367871639911
100.367469163107
100.367725158734
100.368102551338
100.368386178425
100.368732283003
100.368992831852
100.369208800477
100.369469893502
100.369722112137
100.369985302845
100.370170582818
100.370348043014
100.370508669465
100.370739031949
100.370706905518
100.370598729896
100.370379354714
100.370275180104
100.370096359437
100.370309507384
100.369964860191
100.369722824976
100.369359524886
100.368956990059
100.36852482869
100.368010845963
100.367358759839
100.366354511103
100.365038793339
100.364247767593
100.364529829455
100.36520847592
100.365815836871
100.366436479875
100.367149675417
100.367727078116
100.368288503965
100.368783218116
100.369216046791
100.369650229228
100.37023865798
100.368548094793
100.367841664543
100.367363874349
100.366900180737
100.366475807038
100.366168172144
100.365810600735
100.36540191121
100.364590503683
100.363837700671
100.360883219665
100.358553769685
100.362418121155
100.361726432714
100.360763687697
100.357236695307
100.357041824482
100.357211851923
100.359904697636
100.361336011817
100.362051923699
100.363193070911
100.364075717224
100.365268394976
100.366241176279
100.366894181608
100.367618273773
100.368195296921
100.368772937435
100.369240811192
100.369655386699
100.370026441628
100.37048234401
100.37023195477
100.37084043125
100.369065813533
100.372396565199
100.372616017109
100.372695033182
100.372858983979
100.37298024844
100.372957850341
100.372600270777
100.371855321225
100.370846985954
100.369393571619
100.367503487445
100.365947198371
100.364276356038
100.365610735212
100.365792800987
100.362210583356
100.360013590261
100.35942093902
100.349452301261
100.352487755679
100.351837008938
100.355414238064
100.358226138142
100.365872168413
100.367559626867
100.369942238476
100.369878410667
100.370178466427
100.370390317591
100.370604714151
100.370962814437
100.371269440633
100.37156593171
100.371844463266
100.371013825288
100.369477747378
100.36791013482
100.366677979651
100.365940541842
100.365665844263
100.36574175649
100.366070322342
100.366586865615
100.36724901912
100.368079011266
100.369126672834
100.370425034697
100.371984091765
100.373738779639
100.375558040225
100.377300145884
100.378893547022
100.380339161128
100.381638325457
100.3827823361
100.383757343862
100.384573794009
100.384748551243
100.384268985102
100.383537799509
100.382581886631
100.381375801744
100.379960507129
100.37839496603
100.376699943163
100.374873632642
100.372993204951
100.371221452367
100.369681983236
100.368431855015
100.367443047981
100.366686803958
100.366153652341
100.365866837515
100.365847260017
100.366140704805
100.36680864812
100.367879261901
100.369271576448
100.370776407292
100.371893842999
100.372214925379
100.372326560333
100.372404943228
100.372407520104
100.372460425187
100.372587013916
100.372754902022
100.372761931294
100.372867951832
100.372890398898
100.373095530894
100.373208911554
100.373381597487
100.373540420316
100.373555269404
100.373640491848
100.373703166223
100.373690587519
100.373539671432
100.373387386211
100.373062339718
100.372818317006
100.372621850604
100.372471750572
100.372147027031
100.371800342902
100.371402640373
100.371295266644
100.371149507045
100.371145183793
100.37125321665
100.371171715297
100.37143816437
100.371321414224
100.37113007201
100.371242607862
100.371025541504
100.37086303703
100.370703866209
100.370486229816
100.370241875402
100.370000905854
100.369731317778
100.369424256324
100.36915154257
100.368669603781
100.368897213312
100.369264132351
100.369572916048
100.369831868133
100.370072679356
100.370325447594
100.370539699211
100.370703926492
100.370881904339
100.371114148461
100.370960603321
100.370999493976
100.371042169623
100.370831949171
100.370471368953
100.370128934359
100.369993166579
100.370181168494
100.370411053058
100.370607943559
100.372264297365
100.372153206274
100.372720833791
100.372583857107
100.372351591505
100.372654345148
100.37262997872
100.372765971826
100.372949980954
100.372894188759
100.373006229633
100.373071883528
100.373318045131
100.373589185289
100.373760386073
100.373860553491
100.373828196394
100.373729817772
100.373654607053
100.373527720161
100.373217831183
100.372967814074
100.372588472392
100.372260334318
100.371934968132
100.371554903322
100.371425493868
100.371155883182
100.371288133042
100.371140519057
100.371281336892
100.371368225684
100.371564355984
100.371480460864
100.371711086656
100.371548264198
100.371566727833
100.37142038439
100.371297393223
100.371158039498
100.370987964894
100.370794844901
100.370601354081
100.370380799557
100.370124001635
100.369840692992
100.369546545359
100.369205944448
100.36878121026
100.368311069303
100.367954755633
100.367494954697
100.367828137576
100.368276209005
100.368724661885
100.368962875976
100.369292528213
100.369608113331
100.369902356653
100.370159322766
100.370396843005
100.370615942257
100.370808363999
100.370984261212
100.371172504937
100.371382282014
100.371521548287
100.37141767658
100.371309464324
100.371304017481
100.371029512371
100.370143067776
100.369308142357
100.368981889276
100.369242479612
100.36961399062
100.370330101966
100.370734252565
100.370621352516
100.369685958123
100.371526460026
100.36982097912
100.372148153358
100.372332655967
100.373721774207
100.372332059441
100.371951843167
100.371497843768
100.370872418968
100.370167034041
100.369462866067
100.368732975654
100.368115847193
100.367530608665
100.366851081535
100.366741131176
100.364933368089
100.364432453328
100.363736048931
100.362741937034
100.360382763862
100.359346276592
100.358640434172
100.35865780391
100.349335692002
100.352932724115
100.349819378907
100.34951367598
100.351873660365
100.353280258513
100.351912399812
100.35260970584
100.352830186046
100.358342808283
100.356409403964
100.3582629406
100.356451404332
100.354358188622
100.355409392657
100.357758545038
100.359128733764
100.360238297521
100.360295564704
100.358112605168
100.358891702083
100.361187822343
100.362439167315
100.364118483624
100.363874217231
100.365224717619
100.366244626729
100.36728181743
100.368071968772
100.36878204879
100.369308363307
100.369742272423
100.370098595963
100.370444092444
100.370618454204
100.370636926934
100.370752691631
100.370847872277
100.370053511593
100.369056253847
100.371601147342
100.372731690245
100.37300090949
100.372754649581
100.372778144072
100.372926424955
100.37292447979
100.373141599509
100.373106616631
100.373211337694
100.373285142404
100.373519931649
100.373614008405
100.373902398362
100.37403706043
100.373977304861
100.374017379682
100.373959336901
100.373933451884
100.373913643291
100.373807576386
100.37363448233
100.373371347134
100.373122346472
100.373053044858
100.372583807801
100.372357050614
100.372106556491
100.372014423548
100.371778842769
100.371574657589
100.371318404324
100.371414049466
100.371396838452
100.371537156807
100.371672142975
100.371588821574
100.371774510341
100.371707898698
100.371845654743
100.371733780109
100.371638161616
100.371491169881
100.371486527729
100.371284101926
100.371135511065
100.370953654586
100.370763545574
100.370532267014
100.370306288737
100.370020392393
100.369717828111
100.369413432357
100.369049873509
100.368621413932
100.368273137268
100.368494390629
100.368935543327
100.369298107735
100.369613256761
100.369916921721
100.370200333646
100.370435293152
100.370654534478
100.370861225237
100.371054064359
100.371216923574
100.371381337261
100.371392745757
100.371447935835
100.371275294082
100.371090018973
100.371319219239
100.370579522033
100.370831355059
100.370025630789
100.370459982162
100.370847790233
100.37092943324
100.371175155324
100.371015203505
100.371342857915
100.369526067324
100.373151427003
100.374613300282
100.373423742708
100.372340050154
100.372661924277
100.371376458124
100.370786458665
100.370005241939
100.369053987827
100.368387300849
100.367703468911
100.36705597586
100.366447733503
100.365869669005
100.365292726273
100.365390612225
100.365818326261
100.366621023193
100.367390480314
100.368267687777
100.369187155663
100.369976540418
100.370704708375
100.371212757617
100.371782958134
100.372452003306
100.371950211834
100.371667686757
100.372047944779
100.372328445811
100.37261235032
100.372523311378
100.372528656118
100.372733714295
100.372712299029
100.372920136734
100.372942572756
100.372973983568
100.373150748698
100.373191241363
100.37339752851
100.373676693631
100.373832430754
100.373931735031
100.373905926616
100.373899637774
100.37387415005
100.373756523733
100.373506545251
100.373150770627
100.372904112379
100.373158618658
100.3732984815
100.37347533441
100.373759723393
100.37389073951
100.373993641984
100.374034902746
100.373919885989
100.373797742526
100.373599795949
100.373521357146
100.373421604978
100.373180704343
100.373154916791
100.373072829521
100.373092385088
100.372856948001
100.372875094016
100.372730543631
100.372639071412
100.372564027638
100.372811109519
100.372775205129
100.372990483447
100.373020822778
100.373085885515
100.373089453698
100.372742736349
100.372842626708
100.372962180905
100.373092760502
100.373310527281
100.373361056906
100.373525102887
100.373836198953
100.373983146101
100.373993487602
100.37392762829
100.373762754637
100.373702163231
100.373535236007
100.373500392626
100.373430668184
100.373307564395
100.373118820804
100.372885744053
100.37255533006
100.372432019869
100.372046499903
100.371842776846
100.371692594005
100.371428279375
100.371531476546
100.37141636345
100.37168269961
100.371554953409
100.371670834726
100.371732861496
100.37184504609
100.371803333652
100.371930891694
100.371883768552
100.371945988568
100.371853482278
100.371741771183
100.371607674004
100.371438025123
100.371258202088
100.371085391436
100.37087928207
100.370674815421
100.370415576775
100.370175629187
100.369871819043
100.369546077618
100.36921977398
100.368822470434
100.368354059847
100.367999508462
100.36748170587
100.366833126951
100.366162933188
100.365532740046
100.364641328482
100.363858018811
100.364768292029
100.365596921636
100.36625081694
100.366932056932
100.3675105217
100.367941611491
100.368128452514
100.367757268987
100.367444476756
100.36683724609
100.366168550331
100.365451505229
100.364435425829
100.365284063273
100.36581652616
100.366512401137
100.367068877557
100.367409670615
100.366756187814
100.36618979186
100.365337547647
100.365908548033
100.366445969927
100.367005385922
100.36761030554
100.368124997775
100.368524307565
100.368687643647
100.368171274088
100.367722591829
100.367315065798
100.366868314903
100.366127765087
100.36664359472
100.367237028067
100.367542437628
100.367899145752
100.368294014016
100.368804560357
100.369199030655
100.369488925197
100.369739237446
100.369980001808
100.370233976854
100.370442520098
100.370617431608
100.370785085775
100.370729096814
100.370457845961
100.370133211577
100.369689492667
100.369862753475
100.36999927695
100.370282814001
100.370672126538
100.3709371938
100.370837125358
100.370904032406
100.371019242988
100.370398793566
100.369975061535
100.370326922143
100.369845109708
100.36927996409
100.368539189578
100.367717528946
100.366656827227
100.365543724533
100.365118027411
100.366556639804
100.36778295881
100.36870620321
100.369499999938
100.370084119151
100.370563961013
100.370912207963
100.370704013919
100.371035246184
100.371202989466
100.371300106309
100.371273062009
100.371076098671
100.371159796902
100.370877420353
100.371005890864
100.371749880495
100.370372506313
100.372524361249
100.372977635002
100.374433360886
100.373251949195
100.373203980726
100.372211853852
100.371618625788