/*--------------------------------*- C++ -*----------------------------------*\
| =========                 |                                                 |
| \\      /  F ield         | OpenFOAM: The Open Source CFD Toolbox           |
|  \\    /   O peration     | Version:  v1612+                                |
|   \\  /    A nd           | Web:      www.OpenFOAM.com                      |
|    \\/     M anipulation  |                                                 |
\*---------------------------------------------------------------------------*/
FoamFile
{
    version     2.0;
    format      ascii;
    class       volScalarField;
    location    "1.7";
    object      p;
}
// * * * * * * * * * * * * * * * * * * * * * * * * * * * * * * * * * * * * * //

dimensions      [0 2 -2 0 0 0 0];

internalField   nonuniform List<scalar> 
80212
(
100.338287848941
100.33767512637
100.337624834443
100.340382386099
100.343933500547
100.343909336454
100.344226076072
100.344146944633
100.344667550331
100.346178636905
100.345504953348
100.344541742856
100.344855415831
100.345974233468
100.346595720566
100.344817615974
100.344246406958
100.344231902299
100.343913089129
100.343927797409
100.34449619192
100.344724029181
100.345602585578
100.347357394832
100.345763397687
100.343695579221
100.342746217325
100.342567116352
100.342999540748
100.343367207704
100.345974559895
100.345762639811
100.345017034262
100.344633012878
100.343200352157
100.343497102322
100.344223521688
100.343440818652
100.344891640258
100.346861122307
100.346782253052
100.344807031403
100.34339196063
100.344206997576
100.343486577146
100.34318485562
100.344611359041
100.344997630771
100.345733966459
100.345969196715
100.343365425632
100.343001556981
100.342576782483
100.342757092988
100.343706507508
100.34577390163
100.34736634732
100.345610620945
100.344736599723
100.34450906778
100.341417367444
100.341733197207
100.341186798733
100.341428167912
100.341167882987
100.34107196479
100.340635487239
100.34037081971
100.340864450389
100.340812435227
100.341164347519
100.341078974817
100.340866652243
100.341391447874
100.340699286038
100.340248181702
100.340493974499
100.340479599971
100.340552517015
100.340281762442
100.340275244301
100.340545181882
100.3404703151
100.340489681115
100.340262319338
100.340735450579
100.341427849038
100.340898010099
100.341095744705
100.341168577004
100.340807804294
100.340857061982
100.34035981477
100.340627379898
100.341061338065
100.341153597328
100.341416028447
100.341174826576
100.34171784893
100.341402980492
100.340379982882
100.34047146385
100.341655268128
100.342075758377
100.34151881279
100.342156260374
100.341645902466
100.341405247904
100.341567908949
100.34195102428
100.342338024632
100.341578541649
100.342115474152
100.341683956822
100.340486137711
100.337716882153
100.339309093061
100.336868152584
100.336949072997
100.337089062802
100.339803255032
100.338124445709
100.336150441415
100.337212736908
100.338162250502
100.338279857264
100.337984797403
100.338917124084
100.33910729736
100.337995539953
100.338326866727
100.338217357392
100.338173384809
100.337883332796
100.336746620925
100.336127185777
100.337972942777
100.337316277411
100.336356263998
100.336346261824
100.337318827254
100.337947302461
100.33610160113
100.336747638173
100.337935640896
100.338229203718
100.338269527875
100.338355059407
100.338000365305
100.33909918001
100.338908054182
100.337974983712
100.338270114038
100.338150485267
100.337199958454
100.336135252299
100.338111311893
100.339784181339
100.338958217933
100.337616750013
100.337683967222
100.339252390647
100.340397800667
100.338556024085
100.33665023285
100.337408217363
100.338218548398
100.338312503017
100.337603205931
100.336838120262
100.338711456838
100.340493737853
100.33687936344
100.327706131028
100.328265859075
100.328410123416
100.327965759152
100.32880609438
100.33715891992
100.337540339119
100.337571020487
100.338412923426
100.340117246749
100.337523491565
100.336726654394
100.335535998785
100.338752356821
100.336481833547
100.335922026044
100.334589834236
100.335739666235
100.335221645583
100.339146995731
100.339191496025
100.335249521191
100.335824074497
100.334948039629
100.336064914219
100.334543030381
100.337144138849
100.33765685226
100.338177567394
100.336618497095
100.338871239917
100.335563160283
100.336715459034
100.337511985596
100.337137542121
100.337063369342
100.336926514043
100.336863028696
100.336883588146
100.336682630973
100.336656976776
100.328609385898
100.327091912294
100.326804610684
100.327077868075
100.327111997466
100.326881974676
100.327239704352
100.327332719351
100.328689921861
100.328570620716
100.328758118335
100.329790741376
100.33494308599
100.334341531578
100.330977161837
100.329298447805
100.328207774875
100.328297627014
100.330148622837
100.329690819383
100.329655411223
100.330069137659
100.329687043884
100.328670609403
100.328520837141
100.328654785302
100.328782205885
100.327946774916
100.328398610179
100.328267590407
100.327728891033
100.32864003744
100.327094569011
100.327663745142
100.327669535073
100.327649551507
100.327777567898
100.327792701449
100.327724103176
100.327835908484
100.327940176543
100.328113188405
100.32750485161
100.327816867688
100.328070532185
100.328110368903
100.328089492843
100.328378442143
100.328651199503
100.328599005364
100.328169113226
100.328075762301
100.327720629082
100.327445045161
100.327289184135
100.327204274562
100.326851896217
100.327097456871
100.327064128794
100.326791707933
100.327621580841
100.327475122308
100.327490899425
100.327501160883
100.327501336415
100.327611539476
100.327632438886
100.32761785176
100.327688860045
100.327685143992
100.327802507385
100.327678359146
100.327643037274
100.327588026197
100.327691913944
100.327690437005
100.328361055731
100.327999801094
100.328009170678
100.328002954894
100.328068460358
100.327896063276
100.32779125942
100.327687632453
100.327757396299
100.327746939534
100.327571116671
100.326542532724
100.326472076303
100.326513456497
100.326526930501
100.326512882487
100.326601715323
100.326630362907
100.326630541792
100.326726218503
100.326693694656
100.326759649286
100.326681880838
100.326689422139
100.326652225295
100.326694973573
100.326694587416
100.32665342972
100.326685542851
100.327628459049
100.327633597926
100.327751106699
100.327630780685
100.327626729771
100.327562148539
100.327578835376
100.326551904849
100.325360223142
100.325343540175
100.325304453167
100.325354985331
100.32537779758
100.325370313919
100.325442458246
100.325483336593
100.325496188947
100.325610180915
100.325608194272
100.32566937093
100.32563823862
100.325686188933
100.325674295357
100.325704492848
100.325680615324
100.325619930126
100.325608008148
100.325530269995
100.326633440019
100.326695960567
100.326605899023
100.326634632867
100.326545158966
100.325356142221
100.324214613868
100.324204978916
100.324185353162
100.32415665307
100.324220374738
100.324260509317
100.324268665052
100.32435028914
100.324409267286
100.324438669957
100.324581868413
100.324611411414
100.324684966569
100.324685332109
100.324759414101
100.324761344546
100.324798066037
100.324774199226
100.324691081837
100.324642375097
100.324527444159
100.324507800453
100.324404011883
100.324360034237
100.323194797895
100.322991369107
100.322977536518
100.32295323907
100.322914494434
100.323013908047
100.323081769807
100.323109053337
100.32322424844
100.323309008362
100.323351509517
100.323545209979
100.323609357575
100.323704264004
100.323731448532
100.323848885304
100.323860252231
100.323932847764
100.323929609679
100.323851528298
100.323762301289
100.323533447358
100.323431737223
100.323286733739
100.321935513736
100.321760470208
100.321483485699
100.321484389013
100.321458596434
100.321376131862
100.321560977167
100.321673526627
100.321714215958
100.321897365433
100.322020699321
100.322049300399
100.322317305957
100.322438293208
100.32257482306
100.322659531519
100.322860990743
100.322864348653
100.323049451342
100.323039526461
100.322848232347
100.32272451055
100.322363165668
100.322155035556
100.320441864386
100.320133406357
100.319814403372
100.319351190469
100.31945074853
100.319456598675
100.31926278922
100.319648071863
100.319827946147
100.319851560511
100.320154265736
100.320311374466
100.320233278266
100.320667077013
100.320881566089
100.321078353563
100.32130200561
100.321733147034
100.321628908295
100.321995645309
100.321941910484
100.321489641262
100.321430974595
100.320820371067
100.318628486771
100.317699603314
100.317255499756
100.316806008571
100.316019446339
100.316309026267
100.316407438282
100.316031944594
100.316888332818
100.317179203338
100.317022746843
100.317608898271
100.317757594622
100.317476213185
100.31819485351
100.318413125706
100.318654771156
100.319353325602
100.32023891256
100.319796501495
100.3206470926
100.320544089493
100.319482948567
100.319755564858
100.3181478149
100.315438352146
100.31175790712
100.311955193719
100.311312517318
100.309650653743
100.310699546417
100.310857532929
100.3101792676
100.312059809788
100.312582757939
100.311876516437
100.313045791422
100.313107058563
100.312135289085
100.313620841533
100.313713508992
100.313239622574
100.316583797939
100.31869253183
100.317266483492
100.319052009478
100.318882262822
100.316753167599
100.314315428964
100.308969044247
100.303590541491
100.301913917308
100.304826366337
100.303906812781
100.300328768849
100.30263625273
100.303044344562
100.301867959126
100.30529673911
100.306345556366
100.304720884387
100.306808980767
100.306598552885
100.304325007364
100.307405559098
100.307701814168
100.304084390116
100.305081313129
100.310041890128
100.315000637654
100.310090387816
100.308762704256
100.308493738808
100.309520336979
100.32322340635
100.324396304323
100.322301618361
100.315837042011
100.316086526666
100.313721922313
100.310577320375
100.312618264946
100.313534225341
100.313684305078
100.316278502465
100.317936182246
100.318272399542
100.319389711261
100.318632550027
100.316401287246
100.318521396021
100.319781529471
100.318791236512
100.324142183134
100.325661089113
100.323564689431
100.32887165766
100.328577112883
100.367688064794
100.363550773212
100.359289295391
100.357577433723
100.35092822625
100.34696474433
100.342989781206
100.3455216182
100.341444440819
100.344516487605
100.347024823981
100.35886242616
100.380957168559
100.384837400295
100.365640464098
100.348618203382
100.344690250413
100.393194514244
100.430254089019
100.414260057418
100.420971089865
100.432543694633
100.418317993977
100.403810197425
100.355273839531
100.35287435471
100.34970304616
100.35359495416
100.349146656725
100.351350856607
100.354141602473
100.359489808122
100.360618624431
100.363844779
100.367754015634
100.409356066153
100.409592879901
100.425235019686
100.413410265955
100.404667746045
100.399761921028
100.395392008507
100.402070353068
100.382675330413
100.377834120828
100.393132871491
100.382358403836
100.392265154169
100.39735396593
100.403125081716
100.415784906074
100.448639976367
100.44934845178
100.457578831078
100.469098607071
100.446624265769
100.446485741982
100.439910765338
100.404409288391
100.392765015164
100.412545452845
100.443466782932
100.461996247279
100.474799891648
100.479209862309
100.480712666987
100.483299636168
100.484631429725
100.48509188303
100.48515195069
100.484873981694
100.484651945903
100.485040805561
100.485661798206
100.486116294872
100.486496660585
100.486674772525
100.486502205497
100.486178497848
100.486015927343
100.486289225731
100.486585733739
100.487542343531
100.488871583875
100.493734417146
100.502134661731
100.522588933898
100.516980655579
100.471187535079
100.42786490096
100.381635135712
100.355977159487
100.372554551296
100.372758948664
100.370908736274
100.370987908429
100.37194197698
100.372972447349
100.374066684801
100.375362069078
100.376810863422
100.378232208717
100.379436032043
100.380290079842
100.380706029514
100.380197762773
100.379571400093
100.378800592211
100.377876433422
100.376780045144
100.375441488587
100.373849189061
100.37211208821
100.370381184353
100.368826150813
100.367537081942
100.36653251714
100.365741096603
100.365115097572
100.364667599915
100.364471208131
100.364587432426
100.365150310084
100.366346009771
100.368118590148
100.36998000074
100.371467523289
100.372100469593
100.372057895273
100.372105812926
100.372094421251
100.372108499305
100.372150291712
100.372160287721
100.372214263918
100.372370558501
100.372627902388
100.372834335669
100.372894374918
100.372969660614
100.372894062805
100.372634471769
100.372491588932
100.372375310709
100.372401844658
100.372601944399
100.372475378779
100.372245701072
100.372141679103
100.372093952052
100.372061684561
100.372059245476
100.372034498537
100.372026038732
100.372041304984
100.372018362793
100.371878679258
100.371957192612
100.371992581923
100.371988797442
100.371991478277
100.372012355274
100.372038693187
100.372056613119
100.372104067051
100.372321502378
100.372033742234
100.372100824665
100.372092861623
100.371920799199
100.37189111262
100.371949579174
100.371957843471
100.371922305082
100.371923508105
100.371917423698
100.371919189615
100.371871747718
100.371841095561
100.371559203275
100.370823968365
100.371526757984
100.371822171083
100.371828897394
100.371861445705
100.371845939132
100.371864189831
100.371848797808
100.371873329291
100.371806083675
100.37191537813
100.372034954309
100.372045727973
100.371892146569
100.371885909667
100.371832419734
100.371715499691
100.371570647865
100.371590756908
100.371531584193
100.371751170628
100.371806663405
100.371803194969
100.371775255992
100.37180624421
100.371764611688
100.371807096714
100.371787356042
100.371813088738
100.371780351331
100.371771284582
100.371479341036
100.370566298784
100.371447946416
100.371745437736
100.37174551929
100.371770710691
100.37173869584
100.37174689401
100.371740707787
100.371732063706
100.371697253353
100.371710546164
100.371655735331
100.371441322857
100.371465655927
100.371588872203
100.371475673572
100.371597701168
100.371492017293
100.371635347644
100.371634955496
100.371690403855
100.371719772578
100.37169442077
100.371730034505
100.371728770346
100.371721751639
100.371713200265
100.371700703456
100.371419744378
100.370492921998
100.371427858347
100.371693861463
100.371696830265
100.371697441966
100.371707932935
100.37167178858
100.371669546741
100.37162222083
100.371556248296
100.371596168271
100.371565011702
100.371504921224
100.371405775983
100.371137035114
100.370983496398
100.37091068371
100.371256256801
100.371102076048
100.371381140251
100.371499239138
100.371556336087
100.37161309199
100.371647385473
100.371652007351
100.371688584601
100.371677117848
100.371677962632
100.371677465205
100.371431897724
100.370441264061
100.371535006956
100.371669080868
100.37167448441
100.371654516488
100.371667485469
100.371616052226
100.37166500452
100.371660572259
100.37155607885
100.371538714342
100.371457262811
100.371287039133
100.371159765141
100.371416754627
100.371513939427
100.371576527742
100.371560952808
100.371473092065
100.371271890274
100.371067739941
100.370609964493
100.370177689503
100.370658861657
100.370681163189
100.371149049116
100.371043306113
100.371336380982
100.371515396728
100.371591536746
100.371671877693
100.371662839073
100.371633916563
100.371609920977
100.371674345739
100.37169020395
100.371648583572
100.371652712597
100.371580608359
100.37124787783
100.370107914148
100.368523840016
100.370450568332
100.371391189078
100.371573996167
100.371649806282
100.371650686226
100.371688460195
100.371674980044
100.371616205017
100.371713262812
100.371736354165
100.371610501049
100.371613039447
100.371537865972
100.371354221612
100.371172055309
100.371472051276
100.371602169206
100.371669095965
100.371691906571
100.371638949106
100.371468526916
100.371138741058
100.370744585514
100.371073457131
100.371411539525
100.371279756091
100.371603634834
100.371712719042
100.371748557185
100.371665377131
100.371755924038
100.371743984846
100.371605613203
100.371590533539
100.371669123049
100.371623972612
100.371640740213
100.371571407518
100.37144746981
100.37062860487
100.368896162208
100.371009657283
100.371547960482
100.371600030711
100.371617241707
100.371701955513
100.371678134524
100.371600503276
100.371583627378
100.371510836525
100.37126163948
100.370514972046
100.368975549878
100.367629605473
100.36976836256
100.370937924488
100.371366657536
100.371513946702
100.371574115104
100.371598429435
100.371631560394
100.371726581967
100.371760310095
100.371675072373
100.371759718723
100.371732355785
100.371606098195
100.37148284455
100.37169711478
100.371765536847
100.371757991623
100.37174024516
100.371770335971
100.371643986777
100.371368874358
100.370950571174
100.371418412283
100.371551533041
100.371716053495
100.371672504369
100.371784856504
100.371756082102
100.37162220172
100.371715522902
100.371742001093
100.371574168985
100.371560627507
100.371610854255
100.371642679445
100.371529800018
100.371499864313
100.371409124272
100.371152549684
100.370127106677
100.368579012105
100.370822056156
100.371370024993
100.371404089811
100.371472281755
100.371500258988
100.37159344897
100.371518518192
100.371534172546
100.371473849769
100.371713328502
100.371664941271
100.371674765241
100.371717350379
100.371643796953
100.3713982332
100.37090473125
100.371334414387
100.371380005057
100.371578563805
100.371579623759
100.371671065121
100.371651510768
100.371532699037
100.371616486175
100.371492041025
100.371496458566
100.371417150252
100.371426873497
100.371374803221
100.371310939297
100.371194295932
100.37057550932
100.368920826637
100.368018903762
100.370075429119
100.371057601117
100.371249110575
100.371306602828
100.371373252027
100.371363537492
100.371447985096
100.371420045053
100.37161097844
100.371585688178
100.371592776821
100.371610230411
100.371517884768
100.371230093649
100.370731816437
100.371228633553
100.37151098726
100.371508025707
100.371583968607
100.37158942023
100.371577079738
100.371492715504
100.371549295639
100.37144316649
100.371420288188
100.371359413016
100.371316053176
100.371312023222
100.371249264637
100.371203068411
100.370531517897
100.369436395809
100.37106466548
100.371239169908
100.371251772387
100.371259254661
100.371316757424
100.371356207625
100.371354710732
100.371536284616
100.371508361055
100.371488113435
100.37142024083
100.371530731593
100.371560807149
100.371519786343
100.371274496036
100.370764212882
100.371224229372
100.371462767521
100.371523352195
100.371504666698
100.371459034709
100.371511286861
100.371431861279
100.371185808948
100.370711251847
100.371187410462
100.37123060845
100.371421436854
100.371451281154
100.371473578476
100.371455895978
100.371393641987
100.371434989983
100.371477527428
100.371354389103
100.371320489701
100.371338613698
100.371315149412
100.371286547655
100.371251719176
100.37121478042
100.371161471636
100.371117979825
100.369980923005
100.369365853
100.370987781519
100.371207114862
100.371184962451
100.371219719083
100.37126180837
100.371298576185
100.371323852291
100.371298942318
100.371307655917
100.371321235013
100.371439597579
100.371396866632
100.3714085226
100.371373737968
100.37141155667
100.371457261675
100.371437390504
100.371309602955
100.370855272733
100.371272581027
100.371421446848
100.371444636915
100.371384506633
100.371364777847
100.37145417335
100.371436827323
100.371327257054
100.370919402344
100.371288022772
100.371379101316
100.371428351392
100.371510083075
100.371449548534
100.371369411866
100.371375495403
100.371369214733
100.371402800081
100.371325664883
100.371308003772
100.371291329614
100.371300736083
100.371254412285
100.371228026263
100.371172713032
100.371125196037
100.371035031805
100.369942730369
100.369641142961
100.370939057325
100.371194950464
100.371163015328
100.371209764328
100.371264431469
100.371280733722
100.371307771782
100.37133072232
100.371300974727
100.371294273224
100.371269557551
100.371245239641
100.371190053663
100.370963995195
100.370929116679
100.371215101736
100.371223167383
100.371306549034
100.37131337343
100.371323819517
100.371351465685
100.371323724816
100.371401396428
100.37135429492
100.371389036422
100.371376490815
100.371371901512
100.371458680194
100.371508115607
100.371337882046
100.371384715339
100.371417041214
100.371335968382
100.371368236595
100.371465963771
100.371462147524
100.371398124775
100.371144100218
100.371329979952
100.371422718161
100.371436069085
100.371353858589
100.371386607203
100.371368137463
100.371349198769
100.371328382379
100.371370201766
100.371339658234
100.37134645275
100.371325708326
100.371315353864
100.371327390467
100.370921390515
100.371234316601
100.371327701634
100.371308570082
100.371390562581
100.371372953078
100.371372423558
100.371392805389
100.371354969773
100.371391975126
100.371396031552
100.371376108526
100.37146524217
100.371472402678
100.371447784106
100.371164244289
100.371363729287
100.371428398373
100.371430408603
100.371362289847
100.371393186819
100.371371361834
100.371375968206
100.371366932299
100.371402689703
100.371383600092
100.37140840433
100.371412648663
100.371434248813
100.371427410442
100.37106213345
100.371491704566
100.371407070417
100.371421938513
100.371459379477
100.371420542034
100.371407835449
100.371397234387
100.371394471009
100.371383320094
100.371422451397
100.371390911033
100.371460985441
100.371481070272
100.371511119741
100.371257039575
100.3714435614
100.371466468549
100.371456104543
100.371383353552
100.371407420315
100.371430005811
100.371403462519
100.371481951145
100.371511233814
100.371590334672
100.371389595307
100.371506195736
100.37150622164
100.371466503757
100.371379687485
100.371420405893
100.371410037857
100.371400039584
100.371415495832
100.371419625784
100.371429113356
100.371453478739
100.371469747382
100.37152256961
100.371512198601
100.371249508618
100.371459954022
100.371481311318
100.371523278621
100.371506498337
100.371477833907
100.371457583313
100.37143928589
100.371431119971
100.371430637301
100.37143990138
100.371404705374
100.371521652663
100.37159516102
100.371708445856
100.371547872524
100.371610584401
100.371570895791
100.371502480665
100.371391499078
100.371431504763
100.371466497081
100.371436842747
100.371570483429
100.371646758334
100.371758756809
100.371603060936
100.371643214468
100.371600935918
100.371551491136
100.371419202626
100.371456711309
100.371464578916
100.371442845905
100.371461604737
100.371475932304
100.371506936898
100.371515676109
100.371524948026
100.371564350164
100.371586938309
100.371540151358
100.371548993095
100.371593379584
100.371367152835
100.371468194677
100.370599329774
100.370923166921
100.369645935927
100.370291917336
100.368746689204
100.367357403705
100.368133087344
100.366971424928
100.367929392867
100.366890934432
100.36620148322
100.367063149825
100.36643483021
100.366090713706
100.367114646402
100.366914764651
100.366887911175
100.368425370881
100.368600575718
100.368819889069
100.369128211035
100.369510640933
100.371043814472
100.370742507357
100.371174277854
100.371558562228
100.371832786217
100.372301891168
100.372157309526
100.372223833551
100.372271884765
100.372315661606
100.372351918243
100.372412444321
100.372516557638
100.372776335033
100.373030414963
100.373262223904
100.373335289604
100.373341996087
100.37316649133
100.373056601077
100.372819253222
100.372505116646
100.372399687645
100.372464568491
100.372581384857
100.372867377948
100.372597661756
100.372430547284
100.372336667672
100.372109273744
100.37184783373
100.371476120192
100.371106679354
100.371235740751
100.371300736989
100.371156468422
100.370906333325
100.370978415058
100.37111004403
100.371386228175
100.371564840931
100.371466836459
100.371495701126
100.371588436616
100.371519430882
100.371544887278
100.37153026518
100.371833551633
100.371769350303
100.37181068421
100.371857202757
100.371908668234
100.371990385019
100.372052042195
100.372172960827
100.372206313559
100.372256098009
100.372295371862
100.372345255435
100.372532087631
100.372823653834
100.373062763963
100.37315668507
100.3731723768
100.372953160922
100.372667591369
100.372269452319
100.372168004432
100.37220838401
100.372212056251
100.372299514566
100.372514528635
100.372648651675
100.372910789185
100.373159163942
100.373384703562
100.373478493869
100.373488398885
100.373351349198
100.373096675635
100.37281106024
100.372667477457
100.372210504424
100.371757203132
100.371297818161
100.371415581737
100.37157438893
100.371509588892
100.371385795581
100.37128574049
100.370492866731
100.370001773094
100.369878167551
100.369807621467
100.369631398479
100.369764203951
100.370175813052
100.370363776671
100.370410591708
100.370034833147
100.370415183528
100.370642463722
100.3707202609
100.370433409527
100.371484170192
100.371849712831
100.371900329494
100.371981195034
100.371986761869
100.372087694803
100.372122021049
100.372133760303
100.372154750183
100.372094874705
100.372173375146
100.372207485635
100.372283148369
100.372357504484
100.372398400109
100.372430665843
100.37253175457
100.372619464078
100.372763715532
100.373024251953
100.373295900632
100.37354680177
100.373628440182
100.373633013759
100.373514561585
100.373262083439
100.37296367346
100.372513988814
100.372062750048
100.3715974078
100.371442295772
100.37073270621
100.370383272928
100.370233577238
100.37011604674
100.36999605113
100.369757211058
100.369783975407
100.370169375961
100.370418029572
100.370465431224
100.370593889094
100.370253145704
100.37064215075
100.370893881215
100.370658012223
100.371290712212
100.371791779165
100.372104909979
100.372266143425
100.37225607533
100.372234794527
100.372349662899
100.372440894971
100.372490537814
100.372587850726
100.372630747015
100.372711748618
100.372844906423
100.373126263505
100.373411491463
100.373651507544
100.373742162598
100.373751093109
100.373628475766
100.373384176125
100.373072932077
100.372644871127
100.372196291901
100.371717970532
100.371057410979
100.370775002365
100.370609012008
100.370290029218
100.37006245537
100.369976609698
100.369784044256
100.369541138761
100.369786815155
100.370031425746
100.369732340325
100.369617987879
100.369387765227
100.369095209393
100.368824486355
100.368624041355
100.368483125497
100.36840707505
100.368683796456
100.368920165919
100.369116007034
100.369368223074
100.369565297817
100.369203251627
100.36928276138
100.369543779292
100.369612785123
100.370419197372
100.370986883532
100.371688060664
100.371992384561
100.372072363607
100.372218212996
100.372220363305
100.372416884802
100.372443497958
100.372345667973
100.372421588614
100.372526656642
100.372610417433
100.372674015129
100.37270899006
100.372801511571
100.372953493071
100.373254826564
100.373541542918
100.373772175045
100.373865083658
100.373872500437
100.37375896227
100.373513663456
100.373209984299
100.372772056977
100.37233862627
100.371879246575
100.371223885499
100.370955295675
100.370693540376
100.370500719144
100.370467349489
100.370203577271
100.370052521298
100.370331231553
100.370066271101
100.369814102846
100.369569132113
100.369233078891
100.368920623849
100.368451784192
100.3687162533
100.369126158698
100.36942209985
100.369569384006
100.369807290787
100.36979818881
100.369640950314
100.368923731625
100.369215542243
100.369379883797
100.369397046791
100.369526913578
100.369106480215
100.368616071383
100.367996715422
100.36742096584
100.366277617485
100.36614507642
100.366706880275
100.367357658758
100.367917960886
100.368480193898
100.369019895141
100.369886228794
100.367596688407
100.367029544349
100.366665643622
100.366470119549
100.3662306405
100.366141232332
100.36531701612
100.364335638685
100.362123887234
100.365338654262
100.366562257963
100.365604543714
100.364361584193
100.363369713033
100.36160893992
100.360099781909
100.36103936759
100.361994531777
100.363766304444
100.363677964253
100.364227860684
100.365267138404
100.366336464767
100.366961754318
100.367677161991
100.368274502732
100.368905354624
100.369430160143
100.369941240022
100.369545054316
100.370286721057
100.368380495068
100.372891864325
100.372898676337
100.372636096574
100.372333533337
100.371831789026
100.37102784368
100.369796418203
100.368395750329
100.367495757029
100.366326325018
100.367754873407
100.367680695387
100.365915689705
100.363246395565
100.361724788482
100.360843937822
100.353346988322
100.355391014105
100.356230115133
100.357790205041
100.360152782419
100.361797384888
100.365993026704
100.367920895781
100.370098023578
100.370145713001
100.370469832696
100.368795554772
100.369239227456
100.369669849897
100.370180714884
100.370480318136
100.370993221949
100.372155551406
100.372427287395
100.372544137419
100.372330728473
100.372494956781
100.372577294583
100.372698412319
100.372765249632
100.372794221899
100.372906503853
100.373043176987
100.373305312634
100.373591711918
100.373826289229
100.373928778785
100.373941844088
100.373842189216
100.373584785944
100.373297810898
100.372834270837
100.372403837594
100.371985816147
100.371356526394
100.371109766591
100.370848745578
100.370710310729
100.370670715119
100.370553885063
100.370792865557
100.370593501014
100.370633994675
100.370734407818
100.370862878118
100.370651235221
100.370471608014
100.370125153727
100.370258226294
100.37049583186
100.370374734644
100.37010577348
100.369736569126
100.370146837305
100.369757603836
100.369390870169
100.369040005029
100.368656467937
100.368233165926
100.367843372477
100.367193578235
100.367542797817
100.368045607406
100.368465275664
100.368730056364
100.369075023597
100.369428129692
100.369409322838
100.369187752998
100.368699238387
100.368245313426
100.368045985096
100.368473440544
100.368537117589
100.369954529808
100.370906753847
100.37126865463
100.371591671204
100.372567796189
100.372695593956
100.372625545744
100.372459195748
100.372653967689
100.372766854436
100.372829721275
100.372870325572
100.372999971187
100.373118301372
100.373332568783
100.373645050507
100.373880073011
100.373982026585
100.373991811146
100.373909218061
100.373661002046
100.373381193679
100.372938368089
100.372558649061
100.37210808317
100.37155706164