/*--------------------------------*- C++ -*----------------------------------*\
| =========                 |                                                 |
| \\      /  F ield         | OpenFOAM: The Open Source CFD Toolbox           |
|  \\    /   O peration     | Version:  v1612+                                |
|   \\  /    A nd           | Web:      www.OpenFOAM.com                      |
|    \\/     M anipulation  |                                                 |
\*---------------------------------------------------------------------------*/
FoamFile
{
    version     2.0;
    format      ascii;
    class       volScalarField;
    location    "1.1";
    object      p;
}
// * * * * * * * * * * * * * * * * * * * * * * * * * * * * * * * * * * * * * //

dimensions      [0 2 -2 0 0 0 0];

internalField   nonuniform List<scalar> 
87341
(
100.101348524584
100.103360413924
100.099754652169
100.104266600741
100.111283366007
100.111519706921
100.109555192033
100.110156021596
100.110363821032
100.110687249511
100.110856688819
100.110588702447
100.112369715512
100.111915892056
100.114149144766
100.114198315494
100.111710236709
100.10827051329
100.105766153852
100.105432496444
100.105303829967
100.106732480815
100.104537995536
100.106284990734
100.108599518893
100.112750837716
100.107369612591
100.106325808467
100.10556801725
100.105369426581
100.105247398879
100.105669563293
100.106259547343
100.107253038835
100.112496006027
100.108436956142
100.10606206838
100.104240286521
100.106372153914
100.104916026892
100.105100891586
100.105440663728
100.107971010947
100.111403201249
100.113756344051
100.113604808631
100.10685417669
100.105929316586
100.103069246703
100.103171945177
100.10350717049
100.103353351444
100.103293287788
100.103088651931
100.100734037172
100.104136802029
100.10757734182
100.106032651768
100.102769832644
100.101751136199
100.101041016285
100.101721918245
100.101667485396
100.100895466369
100.101812447262
100.102845356259
100.106184877504
100.107791789118
100.104391339264
100.100982937802
100.103420769265
100.103634967297
100.10363554142
100.103769553505
100.103329121129
100.1032270844
100.106237125448
100.107263616237
100.10485011784
100.108045663376
100.111126413881
100.112644549932
100.110500802341
100.110263074858
100.111480608971
100.109640748498
100.10717168813
100.102916429122
100.108379800865
100.096860412849
100.085661134484
100.091667883107
100.092877310086
100.10299719613
100.097831073961
100.098879205961
100.101472544006
100.100453112966
100.099930852342
100.10007357289
100.099374935411
100.103743729861
100.10431770229
100.100157164536
100.100578334536
100.097799927729
100.096656088603
100.09764897609
100.097667799612
100.096727906193
100.097850954641
100.100597048845
100.100300918678
100.104489797222
100.104028755546
100.099549574961
100.100451038559
100.100280925709
100.100743373668
100.101758888033
100.099055632247
100.097921129759
100.10344812688
100.103749569899
100.100410367093
100.104118609689
100.110514038726
100.11550332289
100.108454704508
100.108276780126
100.113093515903
100.128433306906
100.097903278798
100.098470650124
100.083085977706
100.056262374532
100.057150917676
100.052886680306
100.053380142409
100.059528079894
100.089769372028
100.101163773219
100.097952500423
100.09763785911
100.102309236409
100.108949792192
100.090972159986
100.091563062249
100.09289604189
100.101813881243
100.097017888912
100.097016133609
100.101783780919
100.0929389337
100.091638362688
100.091102015446
100.089559302908
100.09004210296
100.093341893503
100.091590655366
100.051696175437
100.053772464113
100.055001143555
100.054768015955
100.053808028431
100.053848550392
100.055979927707
100.056373124372
100.060031314668
100.089381202494
100.084531577821
100.068187047857
100.062468832915
100.062307758876
100.059416280377
100.06037030712
100.054841636776
100.055016151573
100.057372946617
100.061086200697
100.061097213448
100.057393646869
100.055018810549
100.060177515525
100.05927347031
100.05295370356
100.053833522398
100.060233010389
100.060655061341
100.059773832692
100.059457120413
100.060370724233
100.060220544418
100.059349115211
100.060445616698
100.060530205563
100.061209255425
100.061375642134
100.060738518129
100.056020567558
100.056826770709
100.056820762828
100.056077572908
100.055016270917
100.056140189139
100.055758348105
100.059235214902
100.060391857811
100.061145633529
100.061446281439
100.060762086042
100.060681359657
100.061364720013
100.061249168997
100.059092567687
100.058849765983
100.058967925299
100.05916333621
100.059272524358
100.059168017577
100.060966099204
100.060079910288
100.060067460739
100.060665454049
100.06015208158
100.059229326405
100.060390165266
100.058865479288
100.058747161827
100.058933751947
100.059019357396
100.05881342584
100.058839034538
100.059093242294
100.056637723833
100.056684977786
100.056618081048
100.056734513306
100.056821876724
100.056930547395
100.056926829861
100.056925811713
100.059150648447
100.060936652443
100.061248573659
100.061050581384
100.059045361734
100.056755430087
100.05667350652
100.056542056387
100.056560993261
100.056560795214
100.056491201324
100.056531374017
100.054516833937
100.054650955398
100.054676731988
100.054567315023
100.054697520903
100.054874518249
100.055047454483
100.055071314799
100.055091974999
100.055093246043
100.05691804101
100.059208950955
100.059622069409
100.057134996911
100.055358498855
100.054897875319
100.054734288057
100.054622350804
100.054699211251
100.054674766786
100.054516416914
100.052479031695
100.052393966496
100.052711319752
100.052697248712
100.052480277369
100.052646414832
100.053050696611
100.05336476136
100.053402105416
100.053455391253
100.053535952503
100.053242953998
100.052853866692
100.052743102893
100.05292929299
100.052874595086
100.050542940362
100.049796597402
100.049596208686
100.050201558187
100.050274802761
100.049847467331
100.050023875856
100.050770753568
100.051306100247
100.051390503418
100.051526339655
100.051688098832
100.051226537023
100.050491151829
100.050362903897
100.05070691785
100.048354516097
100.047998565991
100.046448483001
100.046008688397
100.047331121668
100.047621603285
100.047488190421
100.047754597541
100.048370294038
100.049295795255
100.049213059705
100.049509144756
100.050109933358
100.049345637385
100.048729672833
100.048398233654
100.043920333619
100.03805358244
100.036558215247
100.039051783828
100.039004697245
100.037091981278
100.037411995874
100.04253769618
100.04372202084
100.040687551233
100.043775078057
100.045590482313
100.046183251669
100.045357433398
100.042532865266
100.045513039563
100.067504564105
100.066824837574
100.067750534744
100.070068770155
100.077625625189
100.06730918336
100.066805823816
100.075934175239
100.073463515884
100.066099365783
100.072769657625
100.084822891311
100.083106582208
100.071935265488
100.063403381284
100.062310976974
100.059793315158
100.064806636457
100.067344181709
100.072567971676
100.066183507183
100.058789362771
100.058027195695
100.054923556294
100.049578424936
100.048458804974
100.05254049638
100.055733136986
100.056516186224
100.059969385584
100.073684723821
100.06742078146
100.071470826657
100.065021007435
100.066774446082
100.061167755338
100.072318298023
100.070488676462
100.06904446294
100.073781928396
100.093347677407
100.129867687646
100.173118157072
100.223374341072
100.273677907079
100.327517532914
100.370030021597
100.402773941951
100.441914234838
100.466969729773
100.481477017715
100.490484443723
100.458076451409
100.46164391105
100.465160873304
100.466163809214
100.464003274571
100.462104687117
100.464461628121
100.47264534602
100.470198948743
100.472138176929
100.47544690644
100.477233875095
100.477748899362
100.475748459543
100.476482721913
100.454334979782
100.467874904284
100.482019827188
100.470727495475
100.463131277837
100.451991604979
100.451982640071
100.456625011605
100.450493474081
100.4321481728
100.439412543278
100.448660834575
100.450919495479
100.442182458921
100.443038687024
100.448069030272
100.457517618411
100.455296251096
100.469918666691
100.41994955912
100.432725229908
100.43791004477
100.438549194903
100.43426219384
100.420658064285
100.425283941262
100.427602481385
100.420776404976
100.416325487396
100.420224548432
100.423396101461
100.422970763012
100.418321517559
100.409701419211
100.414168476709
100.424331919872
100.424070821377
100.468626151129
100.464382714891
100.409301317394
100.413645585196
100.411074883951
100.40553506685
100.41263804164
100.401802197613
100.396010041345
100.412561827771
100.415286755532
100.413108493951
100.413939228239
100.411559911553
100.420714710867
100.412823360459
100.408956350928
100.419522824864
100.431432148709
100.456440108745
100.448149790797
100.458269211507
100.460597674314
100.460887451822
100.460827050932
100.463448122273
100.464759990989
100.466985109876
100.463568335549
100.464136182113
100.466127457277
100.467486967406
100.46031647584
100.468372272942
100.452452045872
100.440194849379
100.439486937992
100.452304549173
100.446447712984
100.438705427847
100.434503876481
100.422594345719
100.415197342095
100.43852561722
100.456833892807
100.456564297758
100.455950046328
100.408562971549
100.408537377069
100.407575536339
100.400985052285
100.3936919809
100.400059723846
100.397578875554
100.393334933341
100.396486564471
100.398428779018
100.395578411754
100.398319200751
100.395417407286
100.398609280064
100.399600732335
100.393132592045
100.39728892997
100.395881949218
100.398207571765
100.395690559847
100.39530950134
100.402576767274
100.406651153884
100.41556563359
100.427079306363
100.429864972654
100.426451028658
100.419707068818
100.42690478494
100.460606867048
100.490433674794
100.475103617425
100.495845325974
100.512481385695
100.475550798618
100.451678806234
100.449209552462
100.463578857808
100.468472168677
100.46777427712
100.501662318108
100.490430644286
100.496874726115
100.480680614254
100.488269051985
100.478166187361
100.476687322611
100.481583223663
100.476715388469
100.48830238026
100.470141102434
100.483976076511
100.480392490548
100.482523547407
100.486311453688
100.496048783885
100.506385029716
100.508956869023
100.493348641237
100.492754266335
100.495019647113
100.498007953338
100.483951916988
100.455603793428
100.424207517217
100.426076121595
100.434749498375
100.441058525284
100.439806120026
100.431246252525
100.420087640616
100.410975995697
100.411438264073
100.395447533721
100.389317064064
100.400931810321
100.404515055066
100.416134530252
100.419227436688
100.413933365233
100.403713515585
100.416963127946
100.423256702755
100.419843276903
100.418746497273
100.414998687712
100.460935190363
100.460656490033
100.462175555051
100.416910561149
100.426206935793
100.421424799723
100.420248937142
100.416486054955
100.413046336716
100.422615357944
100.445547561984
100.451425233627
100.450610854475
100.40585274581
100.407615811687
100.388615108469
100.397654781089
100.412317973641
100.415514404505
100.408382002136
100.39343794331
100.399005024841
100.403459140495
100.416011805771
100.423289037521
100.43458447146
100.465993439106
100.501902854673
100.500995623648
100.483812065474
100.488279808693
100.491025265448
100.502676760248
100.508343167194
100.493849333963
100.495259385106
100.488388631563
100.517367237605
100.514699815705
100.516495812307
100.509477100522
100.494545998089
100.495350504396
100.509189507455
100.505897753342
100.501262649706
100.501874276736
100.505672424205
100.504060484412
100.504330925078
100.482082823234
100.493681069618
100.468435632331
100.454872967929
100.453572029978
100.455872312544
100.470117443606
100.446988163444
100.452722964378
100.450224468256
100.44814406635
100.443513233548
100.438655635282
100.46711587311
100.468156202977
100.467359370289
100.464364310714
100.454979696893
100.464946497791
100.467586142462
100.466106277872
100.46542002918
100.465346740881
100.464213205477
100.465124960989
100.465240337348
100.466306979624
100.466570539608
100.466129870588
100.466342347139
100.466075006824
100.466540151517
100.466101040156
100.467131134765
100.466290791167
100.463770221588
100.460281863682
100.463108844558
100.465602421192
100.464735255415
100.467289332936
100.466903502897
100.466568676001
100.466666304848
100.466771374946
100.466542471541
100.465866647464
100.465706197503
100.465504301817
100.465558794965
100.465690745048
100.465309383431
100.465977380516
100.466093179542
100.465889382333
100.465984787207
100.465621953534
100.465897936067
100.465366266208
100.46572863198
100.465136156888
100.465448585795
100.465144268288
100.465418286116
100.46519153241
100.465383463542
100.465291566926
100.465247031281
100.465227370108
100.464143778275
100.464849382753
100.46476251223
100.464699430107
100.46503509778
100.465823143863
100.465203861367
100.465748306556
100.466524839262
100.465446871592
100.467410603843
100.46670035496
100.468417801128
100.467999239132
100.468419398874
100.468305554452
100.468853526058
100.46886232171
100.470166301658
100.468578922966
100.469463757974
100.469757332436
100.469657582636
100.470175239214
100.468340304002
100.468686479594
100.467563698186
100.467590516881
100.46761884464
100.469229575505
100.470400866538
100.47100901424
100.471027245434
100.470677638154
100.4713824568
100.470955198661
100.470944794362
100.468277175012
100.469934022497
100.470500935926
100.471116802162
100.470541775064
100.469532359712
100.469719237574
100.466720929903
100.466165329953
100.469578247923
100.469296134196
100.467407739554
100.467398455695
100.46774533559
100.467813931893
100.466484819837
100.466830716909
100.465101817967
100.465371409667
100.464084497784
100.463117609876
100.462765062891
100.463275914394
100.464416577962
100.463831531946
100.462264709879
100.462552275983
100.464704784189
100.463880411098
100.460803488279
100.460583363748
100.460789907054
100.461590306452
100.461301323817
100.462896984092
100.462453326441
100.464988606286
100.463949214849
100.466339005875
100.466378681262
100.469327647335
100.46489791437
100.466869683937
100.469075322423
100.469894704612
100.469946938926
100.471480607526
100.472742721319
100.471473722401
100.47210467047
100.470538175381
100.466597084645
100.461169862764
100.466597397484
100.463894071995
100.46255154329
100.461770201626
100.454223648646
100.45602392983
100.45579692619
100.463071012247
100.459691021051
100.462260436213
100.460667560372
100.457453561997
100.459614756713
100.457772022164
100.455887016635
100.457832736219
100.456021764238
100.455274138961
100.457083164724
100.456308453172
100.457565918387
100.458486328604
100.458796977753
100.459007154565
100.464050222401
100.46496637111
100.463086852484
100.465615029742
100.463521295495
100.464225481325
100.464901143874
100.465581148947
100.46535677865
100.465076531452
100.464778566226
100.465624946098
100.465783195815
100.465805819646
100.465194865046
100.465329873339
100.464636832919
100.46471786167
100.464695539531
100.464878505281
100.46583649145
100.465500735566
100.46627494363
100.465868552469
100.466308609259
100.465044552375
100.466008452948
100.466396966211
100.465798876394
100.464680592819
100.464022010203
100.464970601971
100.464066185979
100.463299971526
100.46283619454
100.464810946183
100.464746420427
100.464269660087
100.461819593496
100.464140870146
100.46763923807
100.466422669187
100.463680748077
100.462008299248
100.466316048346
100.466294118647
100.465849433578
100.464763841249
100.465367516897
100.464898329775
100.465243798984
100.465252967647
100.465103816426
100.464770264715
100.464776737483
100.464778347527
100.465089260485
100.465390084037
100.465838711854
100.466146602959
100.466453059768
100.466705257863
100.466836351827
100.466735601976
100.467344168613
100.46689199736
100.466665131795
100.466634302723
100.466693579372
100.466179665588
100.465600526621
100.465513283972
100.465156127498
100.465141795027
100.464897738861
100.464661345653
100.464850759072
100.464841498057
100.464775266853
100.464568810904
100.464041835834
100.46449908066
100.464528055231
100.464399418902
100.462413566795
100.463215368462
100.464322857232
100.464505721383
100.464638370142
100.464139368727
100.464047528713
100.464221755881
100.464759697493
100.465155097913
100.465658364854
100.466182204006
100.466640233994
100.466780991533
100.466828464675
100.466406981558
100.466455719726
100.466676363001
100.466476446291
100.466501752512
100.466253756254
100.466537625061
100.466350031853
100.465791885409
100.465437102118
100.465197604783
100.465152186177
100.465148819029
100.464884388188
100.464876963492
100.464690706104
100.464512492555
100.463767960591
100.463461517523
100.463373165323
100.46405932987
100.463959131952
100.465203996601
100.46524129401
100.466285872409
100.46641844798
100.466397216157
100.467220356071
100.466938006854
100.466594883772
100.465555805295
100.467219184757
100.467199391996
100.466327591892
100.466643101434
100.464485970578
100.464598494135
100.460021032894
100.455029708807
100.456796419592
100.455971908836
100.453857332894
100.449946982507
100.44822106381
100.449761097667
100.450040529634
100.450203727972
100.451398764248
100.452005889581
100.45386909647
100.452965205333
100.454041923999
100.443260412392
100.445407777596
100.447768492566
100.45080468934
100.455572341234
100.461152045274
100.466252558622
100.461913811788
100.456738219813
100.440557326447
100.424219944955
100.447914942171
100.440454666812
100.433290764042
100.430341435711
100.430295019782
100.428947815547
100.417789905675
100.430515488331
100.445253094728
100.438856313558
100.445331985192
100.440087060193
100.437390096503
100.44324744604
100.437789437217
100.437421640528
100.442538749784
100.436491982703
100.439510584194
100.436812138576
100.444076512942
100.441090936825
100.449972706791
100.452298359696
100.457330553175
100.462526069391
100.46587347669
100.468490692614
100.4668916667
100.467279433579
100.467549785438
100.468188232428
100.465648401058
100.465849165333
100.468816283346
100.469070862271
100.467135510039
100.467357337598
100.466882372092
100.467052493029
100.461721670082
100.450481952637
100.4391405071
100.428999885093
100.419341918711
100.427474804199
100.421992961463
100.422356859513
100.414373818654
100.410202662881
100.40731350742
100.406698274309
100.408892392462
100.408551396456
100.415172127499
100.38770409315
100.377048379269
100.380804014062
100.388083088568
100.409019120815
100.411462630716
100.395119791276
100.378978845282
100.375035155854
100.345773815821
100.348940485533
100.352931263792
100.365750830213
100.356518275864
100.336956124923
100.302778328787
100.285144587821
100.321570480086
100.309333956154
100.306909788226
100.315187623716
100.344342246931
100.351118779774
100.339557800617
100.365297097421
100.386778857663
100.38615275093
100.38568265189
100.385865272604
100.386329591753
100.378998341534
100.402510099022
100.386681896761
100.402287030915
100.400633496583
100.408241514417
100.418619863809
100.432166446144
100.454345850725
100.460389697933
100.464594760037
100.467758330713
100.467258477909
100.462902338513
100.459567217594
100.44065032055
100.42391210395
100.390076614926
100.366932557568
100.351474470226
100.341468046535
100.337773469429
100.354055772267
100.342755639202
100.343453867214
100.331370241667
100.332310217591
100.330510870538
100.329418746084
100.334249956298
100.294442026045
100.284008175088
100.29391229042
100.323025549022
100.366967758827
100.395729424678
100.419753046183
100.438749364823
100.449028317912
100.454653900997
100.457020752697
100.457084533652
100.463793338659
100.497501793675
100.481784048377
100.476583906985
100.47550787369
100.477820809143
100.478048378527
100.48420122356
100.502613763182
100.491102106975
100.477690144375
100.474919115855
100.449972749928
100.432391310568
100.431236194446
100.435531231259
100.451419476745
100.439553539499
100.434255732239
100.429434961475
100.418918255649
100.419427241927
100.430565774894
100.431708974305
100.420983419705
100.423512586137
100.434404390608
100.438511575966
100.441038420898
100.452360047826
100.4167302791
100.415217638584
100.411770686606
100.404718631712
100.405548472112
100.413985755309
100.407239960778
100.406125983651
100.399459735573
100.393673480457
100.400623589557
100.406850100325
100.456452689711
100.463154317979
100.460885864099
100.463488371456
100.461255708125
100.468735017404
100.467216644246
100.46928351379
100.46798587206
100.46650140182
100.465658597993
100.465843832914
100.465606811301
100.46800785476
100.467843448712
100.468403474919
100.470805216562
100.472241128164
100.471446959001
100.47127052777
100.471007535054
100.47104135631
100.470643583614
100.470291492476
100.469878475251
100.469523333388
100.469098800034
100.467678921662
100.466124577545
100.465760561484
100.4656115491
100.464765982597
100.465597646971
100.467522586267
100.468755860112
100.473797817813
100.470012931735
100.468586563973
100.4663501283
100.467969463609
100.467794766561
100.468185034626
100.469628292791
100.471207061515
100.472923352503
100.469949004519
100.469135719454
100.46843596107
100.467570913816
100.466958939043
100.467190451903
100.467701807194
100.468281140221
100.468809310051
100.469285252467
100.469127537211
100.468722204612
100.46831799243
100.467933316307
100.467778126793
100.468617137546
100.468698419542
100.468839710015
100.469082838502
100.469357252382
100.469529742613
100.46989883508
100.469579678561
100.46974320735
100.469826245709
100.469957996466
100.470014423092
100.469975883948
100.470002494867
100.470174454391
100.470089289523
100.470115509169
100.470104726533
100.470104358577
100.470034425494
100.46998626137
100.470213553821
100.470109045884
100.469834038226
100.469556671564
100.469428118569
100.469323521108
100.469414355939
100.469606580354
100.471334048996
100.470518290737
100.470029528571
100.469746119485
100.469864804207
100.470269171441
100.470435063386
100.470882988707
100.471568397599
100.472684617298
100.474854214544
100.475482570468
100.475966716473
100.474783952526
100.476207749368
100.475712514342
100.474438796159
100.474733787552
100.473837151942
100.473107904381
100.472191053724
100.471503250709
100.470902664133
100.470625799801
100.470738960179
100.470517968615
100.47039725009
100.470345245692
100.470365847225
100.47025620319
100.470132632714
100.47025207049
100.470166915721
100.470170155065
100.470231358616
100.470175576691
100.470187916807
100.470240165968
100.470208511355
100.47026447368
100.470250492495
100.470968334054
100.470712887021
100.470370885028
100.470412094775
100.470329165532
100.470466556888
100.469700434116
100.470492204708
100.469865622924
100.470176286726
100.4700583863
100.470382391105
100.470434732224
100.470027734179
100.470146762474
100.470313480872
100.470215222111
100.470302434677
100.470152833119
100.470290733498
100.470180102555
100.470259975225
100.470245878643
100.47026888947
100.470209576785
100.470323545926
100.470223446541
100.470256781664
100.470344457532
100.47055292838
100.470576422058
100.470812732855
100.471129281656
100.471646749673
100.472425870317
100.473052500586
100.473521925907
100.473799740674
100.473591186091
100.472034569318
100.470805539119
100.47304553071
100.472106539821
100.473382145645
100.472805492435
100.473421735482
100.473698661948
100.473611709517
100.472943819552
100.471958601557
100.471371762719
100.470877168202
100.470980252982
100.470644098036
100.47050549472
100.470581050276
100.470405308906
100.470498143632
100.470264357739
100.470412723226
100.470363982272
100.470575572938
100.470373224752
100.470322708388
100.470356748295
100.470342484458
100.470314936527
100.470525532338
100.47045534258
100.470488763061
100.470421565878
100.470355774106
100.470140354713
100.469799287027
100.469803693209
100.469927724869
100.469228337438
100.469515162
100.469015746156
100.46904203624
100.468691516886
100.468182369201
100.468246290491
100.46942768916
100.468921894633
100.468113034021
100.467936914612
100.46767326892
100.467998269246
100.46716785111
100.468190403774
100.468139550732
100.468861797666
100.472664958191
100.474059490378
100.473909027688
100.473127558539
100.471813866826
100.471725282973
100.470948202507
100.470437645271
100.469736320541
100.469222180429
100.468443414797
100.46652317039
100.464803280156
100.464476768978
100.465250702656
100.464732462448
100.464543178783
100.464116409938
100.464280212142
100.463995169843
100.463971124046
100.464002577694
100.464055489509
100.463912107124
100.464185895692
100.464031822997
100.463929766316
100.463739489921
100.463109336035
100.464403165192
100.464482664772
100.464262971024
100.464382296944
100.464697567749
100.465332994304
100.465350799912
100.464392472707
100.464177704702
100.465056174536
100.4658402615
100.467185350135
100.469424983561
100.466400453539
100.467651731661
100.468025333165
100.471503876213
100.47198901711
100.473096243817
100.468837461165
100.467505501897
100.466401361118
100.465671686906
100.465736392093
100.465637899337
100.466259875178
100.465720956587
100.465434548101
100.464817989408
100.464680433405
100.464698270674
100.464657089654
100.46467094038
100.464219411861
100.464229703313
100.464076922542
100.464097849009
100.464214182618
100.464114313079
100.46404688854
100.464065123802
100.464061049188
100.46399394692
100.464222605737
100.464086104231
100.464311450669
100.464685396124
100.465317576457
100.465359577744
100.464948911492
100.464358591317
100.463977570808
100.463723374484
100.464178319716
100.46411541056
100.464217739968
100.464441768167
100.464698637138
100.464639593623
100.464355773429
100.46439283407
100.464246414402
100.464371920436
100.464229380128
100.464206215899
100.464187439161
100.464110334675
100.464162818647
100.464130557264
100.46400712651
100.463871135632
100.463356920051
100.464151038325
100.464434544968
100.46445160864
100.464237707581
100.464484027672
100.464749270754
100.464903320639
100.464616717839
100.464486494458
100.464227594313
100.464317043607
100.463972743689
100.464519639163
100.464450444584
100.464262882618
100.464963186115
100.465342641981
100.465571171553
100.464808219328
100.464558606922
100.464835023845
100.464421280506
100.464476120983
100.464905180663
100.465139234821
100.46534043317
100.465483134127
100.465832947567
100.465115638204
100.46468566613
100.464969057917
100.465279398904
100.464708059093
100.464806116652
100.465243168312
100.465201689855
100.465013970754
100.46527744289
100.465488573313
100.465566368157
100.465096057957
100.464853735029
100.464846041088
100.465312584381
100.465448205308
100.465069466245
100.464737135876
100.464342572027
100.464626112799
100.464491543272
100.464222017545
100.464167784603
100.46436992033
100.464378465371
100.464217176101
100.463985568009
100.463920450433
100.463995809472
100.464034957851
100.464016436523
100.464017825112
100.464022716947
100.464010859312
100.464005644249
100.464003058329
100.464009269182
100.464014463069
100.463933293186
100.463442994839
100.46353933505
100.46372525395
100.463737013777
100.464053410558
100.465781684298
100.46585426881
100.466884125026
100.465743600981
100.464967633071
100.464302519685
100.465114560184
100.465077232677
100.46556124304
100.465840607231
100.465288278841
100.464855366946
100.465123585833
100.465247300764
100.465461550364
100.465009780591
100.465248788302
100.465717087733
100.465603178906
100.465354908051
100.465454426811
100.465945658936
100.466097907371
100.465941527257
100.466029465159
100.465869055285
100.465661365372
100.465954546671
100.466459239115
100.466734167453
100.466305873459
100.465634177555
100.465132198635
100.464846090887
100.46505777223
100.464723794157
100.464322356084
100.464143238443
100.464052184965
100.464138885569
100.464175523551
100.463752986503
100.464676009241
100.463879333902
100.463496888671
100.46347734361
100.463872968327
100.464704799147
100.465684901418
100.466922340213
100.468608087912
100.471283753696
100.472865703092
100.478685858102
100.475997778274
100.490602795824
100.486941263377
100.452968486467
100.419506307572
100.380648289599
100.359226369008
100.373778079573
100.371076472356
100.369242318714
100.369594871162
100.370446334569
100.371311204795
100.372383689812
100.373741333489
100.375218503472
100.376565285695
100.37766931462
100.378491090683
100.379005339458
100.37794956631
100.376682830827
100.375226793136
100.373669904947
100.372121361021
100.37067198981
100.369399287064
100.36833297919
100.367463672142
100.366751657431
100.366164190497
100.365730107128
100.365566809364
100.365800278198
100.366549566849
100.367955345022
100.3697890841
100.371529846958
100.372419106099
100.372471840088
100.372462656791
100.372542887068
100.372622484562
100.372623142834
100.372675844747
100.372714538554
100.372779676259
100.372833746619
100.373108054194
100.373242050825
100.373304836266
100.373175388594
100.373071207586
100.373064554963
100.372861419171
100.372754570343
100.372704578566
100.372642291446
100.372655228383
100.372594425414
100.372538195903
100.372537410652
100.372486930693
100.372451550392
100.372335906204
100.372354206418
100.372426425652
100.372456306982
100.372473091113
100.372520308145
100.372564327341
100.372540100879
100.372748391902
100.372852992384
100.373082238815
100.373016543544
100.372948955391
100.372741056636
100.372747711644
100.372692586262
100.372836289228
100.372702021284
100.37262787758
100.37245926604
100.372464143705
100.372421659648
100.372383030999
100.372344328183
100.372350111594
100.372276132613
100.372164260461
100.372098449618
100.37210740346
100.372147371799
100.372226293457
100.372246073924
100.372308215432
100.372290929569
100.372304875847
100.372343832446
100.372405308281
100.372420840497
100.372573227044
100.372600326481
100.372623468047
100.372596757701
100.372423905766
100.372530400911
100.372414135654
100.372496880526
100.372479613347
100.372351384427
100.372348304457
100.372310758557
100.372284970466
100.372243425077
100.372261758299
100.37218854079
100.372161274289
100.372058293376
100.371931966469
100.372080627193
100.372163534912
100.372166429402
100.37221525908
100.3722040192
100.372238693021
100.37225694734
100.372277800934
100.372252257165
100.37233726417
100.372301115912
100.372331314511
100.372364238123