/*--------------------------------*- C++ -*----------------------------------*\
| =========                 |                                                 |
| \\      /  F ield         | OpenFOAM: The Open Source CFD Toolbox           |
|  \\    /   O peration     | Version:  v1612+                                |
|   \\  /    A nd           | Web:      www.OpenFOAM.com                      |
|    \\/     M anipulation  |                                                 |
\*---------------------------------------------------------------------------*/
FoamFile
{
    version     2.0;
    format      ascii;
    class       volScalarField;
    location    "0.7";
    object      p;
}
// * * * * * * * * * * * * * * * * * * * * * * * * * * * * * * * * * * * * * //

dimensions      [0 2 -2 0 0 0 0];

internalField   nonuniform List<scalar> 
79506
(
100.118579844423
100.120665280667
100.116897865978
100.121441231759
100.128396593563
100.128636416121
100.126695979189
100.127302969415
100.12769239963
100.127865943644
100.128260671414
100.127882486818
100.129562640882
100.129001765283
100.131130109931
100.131155805457
100.129094148362
100.126214159176
100.123002652078
100.122621629261
100.122723283104
100.124485028478
100.122071833393
100.123267413344
100.125209229981
100.130044340782
100.124646373513
100.123634006277
100.122878493325
100.122523996325
100.122617160812
100.122681837605
100.123510251878
100.124469024041
100.129954032859
100.124968643304
100.122984725581
100.121727770955
100.124108615092
100.122315688287
100.122252565419
100.122640500955
100.125864762788
100.128786748435
100.130738451214
100.130612930592
100.123965135738
100.122772360447
100.119384587947
100.119892226053
100.120420746905
100.12026092726
100.120353309181
100.120361005763
100.11811919122
100.12134713072
100.125038567769
100.123555349128
100.120171073529
100.119228761321
100.118203893049
100.119049984859
100.119133445484
100.118470926059
100.119351414388
100.120358820452
100.123861959352
100.125335263862
100.121614045447
100.118399764303
100.120698207371
100.12072058687
100.120570108816
100.120693659333
100.120062015778
100.119558496844
100.123084794258
100.12433392739
100.121919823886
100.125237347183
100.128412792043
100.130210014833
100.128224000975
100.12766357759
100.128733327068
100.126881707106
100.124399883439
100.120209292049
100.125661103458
100.114076626421
100.102861470003
100.109041052482
100.110655954438
100.119916565688
100.114073228235
100.115219600043
100.117941383872
100.117259331999
100.116761736523
100.116789522961
100.116756807541
100.121336733821
100.122139949071
100.117607700667
100.117969645213
100.115436950762
100.114251560541
100.115146182613
100.115158374789
100.114283417047
100.115547994116
100.118182733004
100.117887849377
100.12242370785
100.121633746141
100.11704212455
100.117149168933
100.117136239541
100.117578567208
100.118238916713
100.11541074486
100.114193345548
100.12036499682
100.120842842162
100.117396811548
100.121244742545
100.12776502211
100.13298122951
100.126427427012
100.125893465984
100.130443034428
100.145907506035
100.114793710958
100.115304421937
100.100274336478
100.073622603123
100.074478225423
100.070167476542
100.070875509514
100.077069636747
100.107299287103
100.117564278093
100.114667912852
100.114428149666
100.118577629784
100.12479315261
100.108072649611
100.108630933709
100.110049910255
100.119389844498
100.114443189586
100.114467411266
100.119508659161
100.110057785954
100.108763830165
100.108264596754
100.106852273286
100.107578601495
100.111107570515
100.108917808153
100.069000898538
100.07105603644
100.072351461713
100.07210182052
100.071026480135
100.071077576302
100.072976554071
100.073403812329
100.077516449527
100.106651188743
100.101798460674
100.085482210556
100.079702662315
100.079630062313
100.076942585354
100.077733821941
100.072240249189
100.072348719585
100.074492670703
100.078225762259
100.078135525339
100.074328108729
100.072191078212
100.077546101727
100.076762417624
100.070391224621
100.070999037067
100.077519519231
100.077976334331
100.07711582448
100.076810554637
100.077683152105
100.077550623841
100.07681720235
100.078049180194
100.078129739275
100.078604848156
100.078678739862
100.078032473896
100.07324609292
100.074055512319
100.074025794033
100.073211614948
100.072207880415
100.073157613742
100.07270551385
100.076634756394
100.077913981695
100.078544243186
100.078830908915
100.078137190386
100.078083023424
100.078798962819
100.078711916393
100.076577823349
100.076373110417
100.07646105199
100.076543545858
100.076610925117
100.076475190442
100.078300835389
100.077395817565
100.077383740164
100.077975004878
100.077526691651
100.076726724827
100.077942000616
100.076260004321
100.076167563579
100.076325749586
100.076426768518
100.076239334355
100.076289351132
100.076594136732
100.074161136843
100.074175067355
100.074121838509
100.074196305625
100.074178525383
100.074224388105
100.074155547245
100.074117544355
100.076434874913
100.078270433484
100.078599787537
100.078440936541
100.076371292692
100.07399420452
100.073978000487
100.073875954541
100.073922077956
100.073965068861
100.07394432781
100.074011848287
100.07212302375
100.072242890715
100.072260815163
100.072207961608
100.072268462001
100.072251484371
100.072272141128
100.072200844101
100.072164091265
100.072163255613
100.074119558919
100.07649595875
100.076903612401
100.074299375515
100.072291892878
100.07206578122
100.072043596699
100.071980586377
100.072044154301
100.072083740211
100.072054818342
100.070348393376
100.070423608019
100.070528920472
100.070539132607
100.070484701382
100.070543663969
100.070527490159
100.070533705555
100.070463019564
100.070427105692
100.070424023617
100.070344802249
100.070326966281
100.07029062678
100.070345472894
100.070369377748
100.068620949057
100.068597954989
100.068674147704
100.068778060677
100.068766802144
100.068724702223
100.06879694757
100.068779711122
100.068782493432
100.068723874852
100.068690223855
100.068680195174
100.068609018144
100.068596595071
100.06857448117
100.068612068795
100.066837109471
100.06691136899
100.066772849584
100.066769764764
100.066958769668
100.066940272859
100.066905714364
100.066995783986
100.066983407005
100.066992104841
100.066946343468
100.066915642444
100.066897010962
100.066830137861
100.066816258571
100.066800969961
100.064989869824
100.064984934597
100.065094924557
100.064797863386
100.064688744229
100.064972854877
100.065047696925
100.065072996531
100.065185359258
100.065181809354
100.065197433157
100.065164075637
100.065134998151
100.065107782065
100.065044523877
100.065017573709
100.063201965612
100.063138797359
100.063068325313
100.063049425422
100.063257453241
100.063189554254
100.062992353184
100.063182476539
100.063264840938
100.063393156145
100.063410191304
100.063434314703
100.063409367716
100.063373791634
100.063330111825
100.063253920813
100.061447471991
100.061351229187
100.0612364442
100.061138465867
100.060925388514
100.061397946601
100.06150554704
100.061166863547
100.061403394325
100.061500377347
100.061647437459
100.061689976427
100.061726755724
100.061704810823
100.061644643064
100.061561251344
100.059790730954
100.059599518944
100.05943006201
100.059230910413
100.059141493517
100.058881688289
100.058866922064
100.059124693463
100.05939917824
100.059623870459
100.059771942198
100.059969666189
100.060050959535
100.060106786816
100.060075036972
100.05995913172
100.058321839608
100.057982067927
100.057650231394
100.057360657151
100.057023023637
100.056898492582
100.056756061214
100.056566693071
100.056851207225
100.057396815388
100.057718525628
100.058064583831
100.058373175931
100.058511514039
100.058599724477
100.05854093067
100.057102771518
100.056690322738
100.056027232572
100.055478444994
100.054957052289
100.05440276503
100.054153681316
100.054055443647
100.053865450328
100.054242102471
100.055006795091
100.055612561585
100.056331586145
100.056828433146
100.057068178646
100.057198829234
100.055778473914
100.055623773106
100.054866970023
100.053699242824
100.052792881382
100.051851224133
100.050953025711
100.05051843782
100.050357431298
100.04993403358
100.050619510539
100.052215892405
100.053152434017
100.054355412172
100.055210438993
100.055671742739
100.053975442231
100.053932825579
100.053901518423
100.052476589371
100.05028781102
100.048905655172
100.04742546998
100.045958285438
100.044888130536
100.044725005288
100.043958238873
100.045131123189
100.048093555638
100.049540727193
100.051699465184
100.053269862792
100.049777410625
100.050937066476
100.050067184435
100.050855998872
100.048354869114
100.043768231493
100.041663350531
100.039666036043
100.037239312017
100.034789636821
100.035178466694
100.034132067733
100.035758701458
100.040627369685
100.04301165582
100.046946529562
100.03999975936
100.044496253017
100.046055122091
100.043198536962
100.045879948881
100.041655490513
100.031946966649
100.029677556081
100.027459927862
100.024049658274
100.01890203036
100.020389645244
100.019228581352
100.021895456316
100.029362274434
100.032315639623
100.058443420507
100.063979903712
100.070121548882
100.079829812915
100.070658665319
100.070337567905
100.063115361704
100.052262853487
100.052893034209
100.043126855849
100.037919432863
100.037597550219
100.028070793315
100.067804971641
100.092481432118
100.096443895895
100.079306069475
100.036302895348
100.031684559247
100.135373094763
100.221273671019
100.158521508865
100.163920122288
100.162629662335
100.154469313155
100.150430322556
100.1991125698
100.23959325238
100.146661838057
100.157977129587
100.222427163327
100.176059461254
100.172606071091
100.156516486451
100.145946973441
100.146303107323
100.136442658635
100.175025187556
100.115217475127
100.108525482457
100.161724737374
100.121210786066
100.134847354124
100.148764840231
100.239705190307
100.255756622429
100.261468544038
100.254127557861
100.26875917378
100.279565048746
100.295382405984
100.332498176481
100.34595878026
100.248245874471
100.28386642837
100.376966019209
100.325559128234
100.316407206264
100.301430085631
100.320221698001
100.262508154076
100.249361505254
100.296697941875
100.266911377193
100.268222565385
100.271239764021
100.290213538347
100.282718479556
100.253411424827
100.246269302063
100.245034257683
100.326273721412
100.366926625077
100.339749963858
100.345438927799
100.381368362157
100.37426384216
100.347982415945
100.436982589491
100.463156860423
100.434430883234
100.460329253112
100.468384491633
100.426545870056
100.378992927174
100.423099913275
100.370535063265
100.458948615478
100.482792467899
100.467640652252
100.476658982127
100.495576109667
100.466969876563
100.413986759672
100.431584749784
100.467408338131
100.42293887983
100.44092902379
100.444528077081
100.405392884455
100.43829173299
100.415828320581
100.346223803586
100.336903461741
100.403590568777
100.414097496424
100.370207698998
100.400404872344
100.396483730922
100.363912358057
100.397445856229
100.368857403266
100.357434517155
100.37847094894
100.344929139241
100.342600217427
100.400492194023
100.443075463248
100.423002175799
100.436874211715
100.462570173308
100.462604006445
100.444215016363
100.415130713725
100.411977575777
100.47218233375
100.492259125185
100.486198085668
100.485789565099
100.487859774858
100.486839887806
100.472533812166
100.497111881538
100.498726072366
100.494978834708
100.497939759971
100.497427226294
100.494236904955
100.486581436387
100.490589208847
100.493922791046
100.50437381058
100.494674632811
100.505704655427
100.503455118429
100.502163720688
100.500917453225
100.502798703344
100.50289070102
100.501503132877
100.497929738472
100.493905831328
100.482032613378
100.487390642159
100.496139593522
100.478998257331
100.480173554346
100.475763383461
100.478532480815
100.46002743379
100.451315350729
100.468234958332
100.459217757805
100.452107055823
100.449059311976
100.452037000757
100.458321649348
100.431226902535
100.42278477975
100.44526924271
100.430919221189
100.444923863804
100.477690725312
100.477759554778
100.481828352421
100.488213515939
100.498533854787
100.498999684777
100.504894886915
100.501826725592
100.497958460059
100.49221220874
100.494257233784
100.504299687105
100.507938545402
100.508707679002
100.50656025616
100.505412034326
100.503012488878
100.500961814251
100.504115207999
100.50507242141
100.505608592705
100.505586570138
100.502514270716
100.502966319298
100.50117733336
100.502216821321
100.501386433627
100.500959591669
100.497502358858
100.501025530053
100.498782312704
100.502375596048
100.502429782635
100.501520039654
100.502286011175
100.502753849954
100.502483139847
100.501807367525
100.501419811375
100.502090775875
100.502436836929
100.501804164508
100.502070160587
100.502677329575
100.49875468996
100.498752907836
100.499529506326
100.498353114879
100.493619226046
100.493590480317
100.494206008218
100.493081488529
100.49393810423
100.497082690204
100.490724446915
100.490301843563
100.490680226395
100.493467719366
100.494210492725
100.48266057849
100.481476688995
100.495632866178
100.495460217992
100.483906256572
100.490290548494
100.488740569109
100.48287309068
100.487484759628
100.485552270715
100.482926224823
100.492478793548
100.491295414078
100.491404055455
100.490981248829
100.482354600785
100.49134572749
100.497109070255
100.496912908212
100.499522931454
100.506362963632
100.507000267736
100.509095196487
100.510265870413
100.50911222765
100.508956741234
100.509286305891
100.507673173721
100.506883856851
100.508724434229
100.509003689677
100.51014422866
100.509605466648
100.51031745101
100.509330448697
100.508274381896
100.504104089268
100.505397994709
100.506639548424
100.508945697494
100.509396585625
100.510985582484
100.507335248179
100.503693429564
100.503271573235
100.501679430793
100.50039303509
100.500848415757
100.500813915215
100.502770053411
100.504781450161
100.501417632423
100.498901218881
100.4973168228
100.497497510559
100.498676816584
100.500196467934
100.500670188189
100.499451268197
100.497899672776
100.500729042863
100.507296757555
100.532035349961
100.541122833127
100.49084972264
100.454396135302
100.420739097211
100.381143064238
100.35848981599
100.374285909773
100.371727655866
100.37021991889
100.37069346412
100.371523451962
100.372333303814
100.373351715117
100.374695894647
100.376242701781
100.377788185803
100.379154312679
100.380197061997
100.380823781133
100.379485568942
100.378108632935
100.376719972335
100.375302609306
100.373880070247
100.372533260016
100.371343467811
100.370346053163
100.369503814316
100.368772482729
100.368104498103
100.367470955635
100.366885543214
100.366408717182
100.366168570495
100.366294909186
100.366867975098
100.367922433148
100.369291651951
100.370672203504
100.371740685823
100.372183388988
100.372186291932
100.37230089064
100.37229599752
100.372316778608
100.372327476445
100.372356535508
100.372319927063
100.37234751373
100.372311062174
100.37235762332
100.372456234285
100.372459393038
100.372424015376
100.372333031507
100.372282098634
100.372418796689
100.372202107741
100.372207035453
100.372271100635
100.372210592645
100.372143805187
100.372300882732
100.372165484994
100.372248741248
100.372282980472
100.372324546453
100.372232601578
100.372262805901
100.372265563376
100.372249804056
100.372237150661
100.372197931133
100.37221430639
100.372102181689
100.372000436046
100.371875916976
100.37168944468
100.371900811265
100.372016550382
100.372072826877
100.372166239013
100.372157634152
100.372165318645
100.37221888208
100.372257096283
100.372272920339
100.372317428309
100.372355137289
100.372394162224
100.372383882771
100.37239870885
100.372397249106
100.372317017085
100.372494774318
100.372493987118
100.372524544996
100.372532905969
100.372476522884
100.372400366347
100.372353752146
100.372230527949
100.371883452677
100.371471247056
100.371314218038
100.371486269735
100.371636213115
100.372044742982
100.371831656231
100.371610672569
100.371465803712
100.371705652065
100.37168093225
100.372034586356
100.372061714397
100.371972433632
100.372097110096
100.372135901352
100.372271086326
100.37219217579
100.372237841491
100.372295120032
100.372209307294
100.372188574512
100.372237671907
100.372281668714
100.372359698426
100.372370628359
100.372432868631
100.372442226071
100.372445797952
100.372463050435
100.372448376597
100.372573519097
100.372601002497
100.372632505848
100.372685437771
100.372693353362
100.372788285079
100.372498698999
100.372482943758
100.372321573871
100.372335093221
100.372524347999
100.372502867334
100.372630677909
100.372708653382
100.37281807934
100.372836969011
100.37283379357
100.37268469038
100.372512346235
100.372411754098
100.372494743618
100.372518332418
100.372667695703
100.372590275191
100.372561892804
100.372432930885
100.372255337815
100.372201937521
100.372423820935
100.372441362141
100.372482862654
100.372495327447
100.372548068757
100.372576958248
100.372576292204
100.372749026087
100.372850873879
100.37295340718
100.372978686637
100.372984481297
100.372790032306
100.372597333738
100.372226088339
100.371780095
100.371392170596
100.371562802007
100.371713420661
100.371678442519
100.371526907892
100.370852486637
100.370239530641
100.369736925246
100.36992691717
100.370214865764
100.370060645452
100.36993680041
100.370206378885
100.370495652733
100.370652917103
100.370722392883
100.370486510128
100.370750858741
100.370463749637
100.371083127143
100.372239924081
100.372429936071
100.372266187717
100.372293097251
100.372357913914
100.37241599482
100.372420604755
100.372469382592
100.372474748097
100.372522726424
100.372541290895
100.372583219653
100.372576370512
100.372620671939
100.372658778684
100.372847077885
100.372957881185
100.373046766295
100.373050388092
100.373019397866
100.372891161522
100.372684839434
100.372348796727
100.371915962003
100.371429139497
100.370732932503
100.370352923213
100.370206076975
100.370019344433
100.369900507721
100.369136585779
100.368799247255
100.368620301008
100.368439862535
100.368377408498
100.36881551481
100.368977622108
100.368553527523
100.368863339966
100.369326168387
100.369376439693
100.369536672162
100.370596070755
100.371220938491
100.372202213617
100.37252547904
100.372422326235
100.372427830452
100.372464121233
100.372510706054
100.37250726235
100.372550800977
100.372572437909
100.372611489693
100.372605454308
100.372587929397
100.372654180922
100.372747072607
100.372939774732
100.373064516948
100.373197240755
100.373150696749
100.373206952331
100.373202370286
100.373314122831
100.373151240044
100.372991466239
100.372753096109
100.372532843804
100.372608242549
100.372872994043
100.373043111
100.373183128583
100.373345897314
100.373338837792
100.37328625608
100.373076923395
100.372852384687
100.372788763721
100.372467616514
100.372052442911
100.371549671367
100.370848638805
100.370498531802
100.370082649825
100.369804297177
100.369701682729
100.369460016439
100.369195920141
100.368954283737
100.369262817733
100.369609151032
100.369909165967
100.369658034625
100.369289533507
100.369074933031
100.368593081645
100.36853556513
100.368665270745
100.368420894337
100.367913950818
100.368169611069
100.368335018457
100.367884317035
100.367899418681
100.367364309545
100.366924719965
100.366546456368
100.366332469726
100.366808657449
100.367230814637
100.367580093855
100.367176571999
100.367357644119
100.367553664819
100.367400520876
100.368053564203
100.366306588237
100.364701671561
100.363619803304
100.363868186083
100.364605190998
100.365564792813
100.367420791372
100.365358159127
100.364238519493
100.363140676078
100.359610532507
100.356471641276
100.361376985879
100.360561608202
100.360419371811
100.357900804726
100.358977352803
100.356645186556
100.358843531286
100.360432187982
100.360937550658
100.362234824841
100.363535480365
100.364821501048
100.366046219876
100.366904493216
100.366447424934
100.368209040217
100.365919621069
100.372435044542
100.371326898433
100.369870047606
100.367991584465
100.366141795044
100.365108953864
100.367548302625
100.36890654672
100.36420025009
100.36150603769
100.360269041932
100.350159006757
100.353932026976
100.351302928314
100.354827689622
100.356726538194
100.367228223766
100.369301157597
100.371230411374
100.371513275556
100.371803463054
100.371869858162
100.371917131126
100.371948872133
100.371958480681
100.372015585633
100.372064286249
100.372025871637
100.372182681494
100.372158862209
100.372054712814
100.371975014296
100.371958852413
100.372090278005
100.371980544798
100.372122307945
100.372107322386
100.371955169128
100.372013361971
100.372002761853
100.371961296393
100.371934886235
100.371911379913
100.371852011494
100.371732227613
100.371738142759
100.371086647977
100.370052755241
100.371356837151
100.371781387784
100.371762907151
100.371856420949
100.371866204004
100.371892874386
100.371893953983
100.371931996469
100.371954688815
100.371924553495
100.371994088742
100.37191123898
100.371972636094
100.37205695205
100.372058744984
100.372009009504
100.371933316179
100.371947175534
100.371486940084
100.371319923531
100.371619703991
100.371511174961
100.37184216022
100.371701863421
100.371841440666
100.371924201066
100.371871964216
100.371913457273
100.371943822821
100.371968646714
100.371942796107
100.371852910949
100.371885684522
100.371865173766
100.371845464796
100.371755424445
100.371752571042
100.371405291065
100.370271879316
100.37163041085
100.371763535818
100.371793408217
100.37186133434
100.371871531557
100.371901154487
100.371942491739
100.371919071606
100.371920079829
100.371894932439
100.371938428524
100.371814249937
100.371600866884
100.371203029941
100.370676695697
100.371341929085
100.37124688722
100.371806073827
100.371555898513
100.371847017117
100.371937453886
100.371916629762
100.371929974905
100.371984631301
100.371926710689
100.371864618423
100.371859416216
100.371848334896
100.371813515053
100.371759598949
100.371688815584
100.371468987842
100.370049693395
100.368504880991
100.370582923548
100.371625704024
100.37170977039
100.371787124151
100.371854501882
100.371867060079
100.37187618182
100.371955730863
100.37199863698
100.371960784756
100.371925927965
100.371925124435
100.371815400186
100.371610073185
100.371953904619
100.37197782601
100.371979665887
100.37198986043
100.371974701503
100.371836798856
100.37166399127
100.371142649986
100.371836802773
100.371788069319
100.372076199537
100.37196552719
100.372068598448
100.372069999355
100.372051677207
100.371956443518
100.372028138752
100.371899996183
100.371904435877
100.371859822795
100.371816570399
100.37172838645
100.37169431712
100.370790136289
100.369131407166
100.371336767654
100.371796940755
100.371788478386
100.371846518279
100.371940240854
100.371851098237
100.372055271543
100.372104567075
100.371908185664
100.371927105634
100.371862887596
100.371807914004
100.371732284739
100.371609794649
100.371004201538
100.369348578776
100.368368993584
100.370389006703
100.371436489264
100.371699464532
100.371798956384
100.371857652195
100.371964601517
100.371881754124
100.372121019153
100.372012054467
100.372146486741
100.372183903863
100.372119079796
100.372014257867
100.371433363151
100.370952523237
100.371539465796
100.372053037772
100.372087268222
100.37227703782
100.372226223324
100.372268075829
100.372253673969
100.372144689875
100.372227593619
100.37194955253
100.371993452564
100.3718691001
100.371848770846
100.371770624529
100.371660352188
100.370771270852
100.369522011056
100.371523855288
100.371845711668
100.371864973152
100.3718887599
100.372053842261
100.371898809568
100.372234600115
100.372088838611
100.372269468713
100.372340316573
100.37230156755
100.372097993054
100.371642477352
100.372055880027
100.372123565312
100.372229606955
100.372277756642
100.372327724097
100.372311204352
100.372176202501
100.372265496603
100.371983719518
100.372024971865
100.371934769945
100.371916053804
100.371838109711
100.371783886635
100.37148217509
100.370010797456
100.369305127634
100.371310521203
100.371858587318
100.371869186942
100.371936714328
100.371979514027
100.37203827671
100.371981006234
100.372220436433
100.372083201122
100.372232759959
100.37223225739
100.372122286049
100.37189454191
100.371281979687
100.371795595601
100.371833069055
100.372042842285
100.372090059727
100.372236235002
100.372099762676
100.372228317027
100.372221655209
100.372189570374
100.372075050646
100.372028506578
100.37200015255
100.372041871728
100.371984983892
100.371945972988
100.371886638667
100.371773740798
100.371318638858
100.369894300633
100.369573257232
100.371241714654
100.371812088268
100.371895972468
100.37196198878
100.372007370655
100.372015755171
100.372065878438
100.372041333988
100.372206605863
100.372111818286
100.372197312346
100.372161823434
100.372025346473
100.371783938844
100.371196130429
100.371687046008
100.371989108454
100.372119086658
100.372163463708
100.372175736158
100.37212390399
100.37199002093
100.371786088915
100.371232630986
100.37170308984
100.371781198287
100.371945591216
100.372047013277
100.372141590817
100.372051849224
100.372177018145
100.372077149705
100.372163640826
100.372198519167
100.372048105109
100.372066690259
100.37209904715
100.372047257045
100.372036562602
100.371981925403
100.371970157398
100.371592717041
100.371249538691
100.371962746911
100.372008545967
100.372053067632
100.372072057041
100.372113227012
100.372100343497
100.372110524911
100.372168811588
100.372159397708
100.372152482974
100.372158031489
100.37207535897
100.371782607899
100.371956227403
100.372121715093
100.37212375483
100.372144160129
100.372175342068
100.372207401316
100.372103857553
100.372134722573
100.372104328094
100.372110278226
100.372100846026
100.372000799168
100.372141263855
100.371482003254
100.37168990477
100.37211294404
100.372090017171
100.372117129918
100.372150967905
100.37214394695
100.372164986533
100.372133945269
100.372217210536
100.372142774859
100.372173262653
100.372182773084
100.372071068144
100.371858648928
100.371475075983
100.371817131863
100.372023006297
100.372135993352
100.372128292116
100.372199713387
100.372197127041
100.37210644885
100.37200171084
100.371602924814
100.371884208467
100.372090683789
100.372185032624
100.372159995824
100.372181998879
100.372206192983
100.372243138133
100.37216309771
100.372182201972
100.372195975727
100.372187691492
100.372188155189
100.372202326194
100.37206688516
100.372247594229
100.371671567972
100.372243218756
100.37224410576
100.372253804376
100.372248017926
100.372263162777
100.372250012767
100.372252732935
100.372236441276
100.372304657912
100.372233163338
100.372254084104
100.37229573443
100.372216199551
100.372119284675
100.371757645625
100.372007506541
100.372177630113
100.37223402732
100.372215051098
100.372272866999
100.37226882332
100.372249627196
100.37226050591
100.372005367566
100.37169762937
100.372080275838
100.372266745574
100.372334577604
100.372296060985
100.372392712679
100.372356425449
100.372288441323
100.372301300184
100.372304253107
100.372289295344
100.372324002871
100.372257923333
100.372265401953
100.372321385645
100.372347975711
100.372330074773
100.372360337031
100.372217694688
100.372388798264
100.371884594647
100.372490523737
100.37236567494
100.372505634805
100.372471709616
100.372465583475
100.372457107136
100.37241350133
100.37237336623
100.372353392056
100.372368073814
100.37233352528
100.372375421933
100.372425801473
100.372511359429
100.372460191322
100.372412781099
100.372527006408
100.372603782724
100.372502850788
100.372513709304
100.372520053673
100.372667288615
100.372776153505
100.372745126911
100.372781648035
100.372722652428
100.372550997403
100.372506705111
100.37256665665
100.372469837431
100.372521010783
100.372423329508
100.372505762847
100.372549936779
100.372552783533
100.372619600449
100.372574348003
100.372684257062
100.372495032114
100.372715845903
100.372667928235
100.371635155842
100.371945268603
100.370633918038
100.371113060441
100.369645594814
100.370353196343
100.368768990142
100.367682190154
100.368242915641
100.367423822714
100.368147238609
100.367389288922
100.366974703551
100.367691105932
100.36731062506
100.367123856979
100.368204439565
100.368162614832
100.368316453202
100.369999648239
100.370172209808
100.371497686836
100.371813582781
100.371926642893
100.371975454399
100.372048631598
100.372050966863
100.372102903017
100.37213302267
100.372166948674
100.372114647784
100.372211626525
100.372111384163
100.37216021603
100.372223045999
100.372214377494
100.372140811098
100.372059777085
100.372206433195
100.372157203767
100.372171180849
100.371849005698
100.371724295957
100.371934117602
100.371774621893
100.371370621795
100.37095217118
100.370945899663
100.37123243275
100.371298532727
100.37184849186
100.371687732017
100.371376627132
100.370840280474
100.370172747604
100.369428208815
100.369952094799
100.370197059121
100.370051732546
100.370684125497
100.370707995683
100.370798619344
100.370492162487
100.370815814225
100.37131572141
100.371472830224
100.371784107111
100.371807220442
100.371961507781
100.37195559228
100.371859349791
100.371862924281
100.371885188505
100.371898126642
100.371935244927
100.371953287431
100.371978072454
100.372023871159
100.372041269175
100.372067846872
100.372082877159
100.372122294899
100.372183747417
100.372145528433
100.37218555866
100.37221591134
100.372193744993
100.372297074461
100.372272183903
100.372218677367
100.37230183148
100.372147067639
100.372182600968
100.372178560151
100.37219938408
100.37218288911
100.372181707792
100.372420996082
100.372439228445
100.372326323396
100.372371276725
100.372418407854
100.372465408103
100.372503570358
100.372584842569
100.372632953209
100.372647678538
100.372667518666
100.372717620512
100.372745063303
100.372881157381
100.373037832547
100.373173218824
100.373338466627
100.373482791539
100.373478950103
100.373429405211
100.373246202381
100.372940667364
100.372719792444
100.372823596658
100.372455435226
100.372119621378
100.37164999714
100.370935743322
100.370620554887
100.370219363934
100.369965543654
100.369883635843
100.369673013476
100.369965562946
100.369717334487
100.369357687728
100.369001550943
100.368830250734