/*--------------------------------*- C++ -*----------------------------------*\
| =========                 |                                                 |
| \\      /  F ield         | OpenFOAM: The Open Source CFD Toolbox           |
|  \\    /   O peration     | Version:  v1612+                                |
|   \\  /    A nd           | Web:      www.OpenFOAM.com                      |
|    \\/     M anipulation  |                                                 |
\*---------------------------------------------------------------------------*/
FoamFile
{
    version     2.0;
    format      ascii;
    class       volScalarField;
    location    "1.2";
    object      p;
}
// * * * * * * * * * * * * * * * * * * * * * * * * * * * * * * * * * * * * * //

dimensions      [0 2 -2 0 0 0 0];

internalField   nonuniform List<scalar> 
79506
(
100.126423241956
100.128508658555
100.124741278743
100.129284650484
100.136240012926
100.136479808536
100.134539341212
100.13514631051
100.135535724022
100.135709248418
100.13610395854
100.135725760991
100.137405899649
100.136845015615
100.138973348031
100.138999035711
100.136937371054
100.134057381451
100.130845878134
100.130464854433
100.130566513494
100.132328267601
100.12991508495
100.131110680756
100.133052517495
100.137887652893
100.13248971655
100.131477386946
100.130721910655
100.130367450219
100.130460666245
100.130525383037
100.131353841283
100.132312659157
100.137797703945
100.132812336629
100.130828429565
100.129571471791
100.131952303799
100.130159353524
100.130096200372
100.130484099995
100.133708324284
100.136630271944
100.138581936874
100.138456384065
100.131808586375
100.130615848716
100.127228112965
100.127735794542
100.128264357257
100.128104571405
100.128196992393
100.128204714614
100.125962916741
100.129190862241
100.132882287191
100.131399047334
100.128014728613
100.127072361702
100.126047441243
100.126893487181
100.126976900425
100.126314341588
100.127194790342
100.128202154719
100.131705258044
100.133178539063
100.129457303611
100.126243004841
100.128541437709
100.128563808945
100.12841332584
100.128536874303
100.127905230405
100.127401720292
100.130928020096
100.132177155526
100.12976306229
100.133080601387
100.136256059511
100.138053300925
100.136067306581
100.135506895122
100.136576665181
100.134725067337
100.132243272177
100.12805267701
100.13350445607
100.121919965332
100.110704734536
100.116884439173
100.118499493873
100.127760057707
100.121916769193
100.123063182145
100.125785008011
100.125103004916
100.124605454028
100.124633271228
100.124600570159
100.129180507139
100.129983732999
100.125451463718
100.125813343972
100.123280567705
100.122095112433
100.122989685576
100.123001826322
100.122126827637
100.123391359729
100.126026053581
100.12573112009
100.13026695694
100.129476979962
100.124885346063
100.12499238668
100.124979443099
100.125421767273
100.126082116682
100.123253949045
100.122036554513
100.12820820934
100.128686055227
100.125240038232
100.129087986285
100.13560828276
100.140824512782
100.134270728679
100.133736780817
100.138286362797
100.153750804849
100.12263699472
100.123147688558
100.108117552133
100.081465717984
100.082321429625
100.078010810205
100.078719068062
100.084913488558
100.115143011359
100.125407918443
100.122511614474
100.122271921143
100.126421436825
100.132636986858
100.115916675003
100.11647485483
100.117893468589
100.127233419868
100.122286696796
100.122310857102
100.127352048978
100.117901175188
100.116607054698
100.11610775535
100.114695423491
100.115421757844
100.118950729189
100.116760985953
100.076843972373
100.078899000918
100.080194404365
100.07994486802
100.0788696539
100.078921122511
100.08082067987
100.08124917066
100.085360913663
100.114495124514
100.109642253107
100.093326298743
100.087547171331
100.087475030051
100.084789527186
100.085585977905
100.080086922319
100.080193464085
100.082337252155
100.08606942543
100.085978688
100.082171095808
100.080034023826
100.085389086755
100.084605466203
100.078234284402
100.078841997294
100.085362490396
100.085819230881
100.084958551431
100.084653308068
100.085525950794
100.085393872111
100.084661454355
100.08589337578
100.085978397373
100.086468488282
100.086586954023
100.085889004985
100.08109280765
100.081898858448
100.081868393066
100.081054148346
100.080050548361
100.081000427686
100.080548450853
100.084477663658
100.08575724628
100.086387452418
100.08667386873
100.085979723661
100.085925322175
100.086641218227
100.086554769672
100.084419422901
100.084215730607
100.084306319188
100.084393102245
100.084466429276
100.084321249809
100.086148144744
100.085235020129
100.085224999864
100.085816896002
100.085369018637
100.084569403456
100.085785097447
100.084104573724
100.084012014943
100.084169793192
100.084270113891
100.08408177273
100.084131079023
100.084435502954
100.082000842711
100.082014397671
100.081961706117
100.082037877956
100.082021776045
100.082069607403
100.082000467894
100.081962955568
100.084278640671
100.086112016118
100.086441778297
100.086283707845
100.084215506613
100.081841085815
100.0818251984
100.081722612631
100.081767676834
100.081809309371
100.081786624386
100.081852617063
100.079962094356
100.080079640362
100.080096363449
100.080043662613
100.080105840389
100.080091086737
100.080114678047
100.080045718329
100.080011530811
100.080012555865
100.081965918612
100.084339765084
100.084746634673
100.082145459623
100.080140873804
100.07991674988
100.079894912217
100.07983080739
100.079892452496
100.079928969369
100.079897045947
100.07819003337
100.078259518946
100.078360563795
100.078368323237
100.078313832257
100.078375112477
100.078362624207
100.078373800027
100.078308297667
100.078277842401
100.078278167309
100.078202265237
100.078185028247
100.078146730074
100.078197981573
100.078216536811
100.076471190956
100.076438417772
100.076504514446
100.076600305304
100.07658569188
100.076543073789
100.076619054784
100.07660759079
100.076619151157
100.076569854062
100.076546176695
100.076543111949
100.076477503364
100.076466033739
100.076440398409
100.076472064752
100.074708859203
100.074768162046
100.074610903428
100.074591084556
100.074765342598
100.074740422134
100.074704897555
100.074801948178
100.074799635295
100.07482298646
100.074793535185
100.074780439105
100.074775165798
100.074717109736
100.074705337639
100.074683617388
100.072901369022
100.072879178298
100.072962430925
100.072634176012
100.072491183908
100.072752542081
100.072815034989
100.072838652969
100.072961004934
100.072978732137
100.073018683826
100.073014088787
100.073015393885
100.073012082672
100.072963454139
100.072941128526
100.07118659496
100.071104410799
100.070996784028
100.070933664506
100.071087159066
100.070963327923
100.070725335964
100.070894404981
100.07097419003
100.071120712908
100.071169287421
100.071236521144
100.07126304821
100.071281834877
100.071280542005
100.071231168619
100.069525588612
100.069440751516
100.069294436896
100.069130275138
100.068834712773
100.069210965701
100.069226803429
100.068822778437
100.069020835326
100.069112958961
100.069291702862
100.069383274803
100.069496462398
100.069564031996
100.069598522902
100.069593032071
100.067961557713
100.067851300747
100.067699848006
100.067448346586
100.06724279149
100.066838832822
100.066663565204
100.066754963636
100.066912284302
100.067079338863
100.067218779866
100.067466100801
100.067636415517
100.067818833061
100.067942515893
100.067990209697
100.066482109106
100.066396637597
100.066200931279
100.065939345354
100.065515552076
100.065191210899
100.064797112664
100.064330358656
100.064329303628
100.064675895595
100.064908060617
100.065232572143
100.065622117102
100.065907702285
100.066207198264
100.066422020007
100.065007061034
100.065080964287
100.064852400733
100.064522433413
100.064066519483
100.063360562103
100.062750038818
100.062246756415
100.061556508687
100.061443543391
100.061918661143
100.062370771961
100.063029818459
100.063662157653
100.064172471046
100.064618340155
100.062872545176
100.06356631638
100.063676730341
100.063147145323
100.062672550742
100.061849039548
100.060674315231
100.0596279822
100.058786181942
100.057472496514
100.057395314719
100.058493861223
100.059193306474
100.06027544038
100.061347416998
100.062257113341
100.059730160178
100.060529876902
100.061775427984
100.061934434957
100.060805364062
100.060282475468
100.058954321764
100.056904700296
100.054799802248
100.053511784535
100.051212403874
100.051127626001
100.053289445433
100.054320643792
100.056395528502
100.058297738834
100.053039617591
100.055092459745
100.055639103105
100.058587751127
100.058829736607
100.056226293501
100.055979681082
100.054015613376
100.050528069535
100.046048777869
100.044553780101
100.040868567129
100.040512272873
100.043929528895
100.045556248777
100.049702029235
100.039686115907
100.044889355715
100.047603560342
100.046773403525
100.053353837127
100.053697844841
100.047961077586
100.048847470641
100.046229478328
100.04097766373
100.032559120532
100.030580253436
100.02516901567
100.024534054151
100.0294720961
100.031524330279
100.052809426651
100.059093745745
100.066808819148
100.077494881944
100.071665252008
100.076663743442
100.077665310967
100.072964234203
100.079115339466
100.0686150578
100.060970850564
100.054301928065
100.039337561266
100.074768319902
100.094340947438
100.09463934113
100.074889162545
100.035326541988
100.036000437322
100.138778921231
100.223190134473
100.15825304048
100.157992599118
100.15448178703
100.146323624219
100.13969479554
100.187642775977
100.229606347639
100.137051637973
100.148951624694
100.212082690998
100.168796993816
100.169452434071
100.160828738414
100.16209088838
100.172478807861
100.171736631993
100.215769819317
100.152128379356
100.139308335486
100.189633640085
100.141387302099
100.147133688615
100.15503771061
100.243254534255
100.250772366905
100.250379656788
100.242300209959
100.256375847868
100.265779817643
100.282052038661
100.322326839795
100.338541225309
100.239072011865
100.275957799215
100.369119154725
100.31386640014
100.304910945623
100.294342499419
100.316998951414
100.263539276105
100.265754965177
100.320707172166
100.299145416534
100.309823452862
100.317873815859
100.342237094158
100.324943598834
100.284302138736
100.267409860334
100.257647598985
100.332780467456
100.366776186283
100.331629544884
100.331464561018
100.366327158907
100.357155763511
100.331896392432
100.425552368298
100.45177467408
100.419629122751
100.446920500016
100.455305958735
100.410224023649
100.363223969552
100.410676983927
100.355177460283
100.446740310195
100.472490528591
100.457528840566
100.469738912789
100.494601679145
100.460212300351
100.403024158814
100.427892305508
100.460758540452
100.410828954881
100.431826090074
100.433087272508
100.395718443877
100.429479723507
100.411493335199
100.346336527778
100.348831446499
100.416426977253
100.437171796688
100.402509580022
100.439417474541
100.437986180637
100.414461179207
100.460621735778
100.431340637691
100.405289533374
100.411940233723
100.364365812788
100.358256337525
100.410764611018
100.447401926171
100.419883294905
100.431312161341
100.45409904505
100.45392967702
100.431066944388
100.402288729169
100.402400350638
100.464044026741
100.486592467996
100.478305293202
100.478018975513
100.482261195143
100.478159621254
100.460062186108
100.491218251411
100.496602336933
100.491395952779
100.493418351559
100.49276107284
100.485772158614
100.476468972424
100.481574209855
100.487409853012
100.498298972037
100.48541391796
100.501585840662
100.498568494882
100.496180337649
100.497030041812
100.497705339855
100.4986155344
100.499407343312
100.50081886677
100.496436049581
100.48490337309
100.492299009299
100.498199022424
100.47416691777
100.476335325354
100.46841796007
100.477309330408
100.457596311889
100.4619954743
100.482639952418
100.477252634806
100.480563611408
100.479457056163
100.496942147395
100.492614851825
100.485897718612
100.460774694301
100.469577598958
100.458114716771
100.455392834295
100.480776843926
100.47661199741
100.478408054132
100.482465604041
100.491775645243
100.494783208063
100.501995996373
100.501672738594
100.494374508921
100.48697324023
100.487126184321
100.501444287868
100.509523334749
100.509596619417
100.509082555939
100.508017389297
100.50214776057
100.498274625061
100.506689840666
100.510141333062
100.512027293149
100.508071654402
100.501635676497
100.501316504315
100.498566423673
100.498292553306
100.496805225758
100.495139601202
100.492566421343
100.496528939001
100.49050567664
100.498337172654
100.49660436292
100.495401179994
100.496029022147
100.495695460338
100.49651816121
100.494658645911
100.492442748337
100.493618950573
100.492082068309
100.490995166767
100.492285719158
100.495428697537
100.495115401522
100.497612221018
100.500004267589
100.498652531712
100.499629879904
100.499013121758
100.502305122427
100.497005965398
100.49837711778
100.49828610842
100.491001501208
100.493792833954
100.488448962433
100.496728429407
100.498296671456
100.486026777861
100.487610458824
100.500574940027
100.502598487957
100.498302691676
100.499171202425
100.498138777825
100.500901560523
100.49763834723
100.496318769739
100.501452572218
100.496689306406
100.49739861654
100.496468231083
100.496483129224
100.486379005407
100.489922329485
100.49247763291
100.492846224586
100.494220403075
100.499933979572
100.503365915734
100.508537805918
100.512548553743
100.513950127183
100.518738254886
100.51807146955
100.513177330904
100.511382829163
100.512112321915
100.516467468651
100.51801987141
100.518084789236
100.518146766174
100.517507909681
100.51393369216
100.507579851974
100.508731268335
100.512495038284
100.516753260751
100.516609450465
100.518954296846
100.514663197666
100.508658412842
100.505791001624
100.49929021588
100.495268440177
100.495960023302
100.496695309572
100.499556748947
100.505460494992
100.500882201072
100.501842917269
100.500877465606
100.500319222738
100.499060373617
100.497753732738
100.497543669023
100.50050615248
100.509722745312
100.529397820341
100.555109974783
100.597828496624
100.606974432021
100.533675494739
100.481659040592
100.436523601871
100.385274864173
100.356176452178
100.375592329169
100.37308081183
100.370812022121
100.371199187051
100.372196659938
100.373139714355
100.374281999015
100.375819236318
100.377629258641
100.379453128467
100.381042111918
100.382218408422
100.382865281644
100.381356474118
100.379726006072
100.37804591848
100.376358276226
100.37471983586
100.37321801358
100.37191572282
100.37081058816
100.369838074012
100.368962092403
100.368151549283
100.367404153306
100.366765014428
100.366327391051
100.366215341766
100.366546390435
100.367376194853
100.36872067064
100.370340538341
100.371830762426
100.372683946845
100.372932025109
100.372934914757
100.372981709467
100.372985907716
100.37299386356
100.373013459472
100.373028239507
100.372996518545
100.373056971019
100.373056025401
100.373190913071
100.373304639324
100.373256307555
100.373160024267
100.373014624456
100.373011564149
100.373221145229
100.37308201619
100.373107149722
100.37310969415
100.372962091307
100.372869651122
100.372986671365
100.372883483858
100.372996060493
100.372973423577
100.37299851576
100.372900775506
100.372924637713
100.372937979674
100.372928173448
100.372914169519
100.372888543114
100.372911188751
100.372864240034
100.372752494483
100.372685573911
100.372633959096
100.372704369162
100.37279301413
100.372829846427
100.372864201099
100.372846659995
100.372846193922
100.372870761154
100.372910748418
100.37292248666
100.372938945856
100.372966905249
100.372998542203
100.373079367154
100.373088270766
100.373105976985
100.37304998983
100.373305894207
100.373381764527
100.373411853551
100.373483195333
100.373488770507
100.37340212472
100.373307455352
100.373233049018
100.372900323173
100.37242179188
100.372251473602
100.372418479536
100.37261760785
100.372983771567
100.372730761521
100.372499556125
100.372323475693
100.372518191065
100.372534099186
100.372801583782
100.372887235141
100.372751974716
100.37277893976
100.372746155231
100.372813641064
100.372773049784
100.372840668075
100.37291210596
100.372870435788
100.372862324888
100.372897149304
100.372928101496
100.373053077032
100.373050209038
100.373116141069
100.373144502842
100.373137695552
100.373186197917
100.37321993017
100.373457125613
100.373540281758
100.373656294042
100.373743112799
100.373686496927
100.373828116132
100.373403762775
100.373272140211
100.372966123688
100.372999387685
100.37326883937
100.373309150345
100.373560117036
100.373711051586
100.373908038
100.373950561925
100.373976336275
100.373826702558
100.373585140891
100.373470335657
100.373567668907
100.373632644412
100.373754176534
100.373633160081
100.373523532851
100.373273068871
100.372892979094
100.372726936378
100.373008122076
100.373001833649
100.373182035459
100.373198989044
100.37326130637
100.373346136883
100.373422816423
100.373739617891
100.37392061648
100.374096993186
100.37414570965
100.374175776022
100.373940773824
100.373674218072
100.373210409402
100.372668502471
100.372146516056
100.372385621479
100.37258604583
100.372619117975
100.372474247474
100.371726811223
100.371069742697
100.370421801542
100.370693858259
100.371042374512
100.370933166264
100.370837778396
100.371116107685
100.371448513497
100.371574710524
100.371618408744
100.371332879188
100.371664354351
100.371292618476
100.371940105098
100.372743508981
100.373111079702
100.373025496604
100.373029421463
100.373030390048
100.373066441966
100.373116862101
100.37316413045
100.373156420361
100.373209166374
100.373249355061
100.3733000251
100.373286577089
100.373412767383
100.373551710094
100.373885302179
100.374078499338
100.374238769637
100.374235978867
100.374214973987
100.374027398482
100.373730207671
100.373296256572
100.372742971569
100.372110572941
100.371296308822
100.370866624135
100.370762555494
100.370625288516
100.370539861144
100.36970802074
100.369337317257
100.369187292728
100.369052475112
100.369048023153
100.36952610081
100.369595073452
100.369077915348
100.369444451128
100.36996439456
100.370016585355
100.370116770275
100.371351003534
100.372027926263
100.372687647223
100.373129898125
100.373141879184
100.373111998257
100.373104003856
100.37314102669
100.373193330853
100.373230139729
100.373273439212
100.373322779988
100.373324462582
100.373294848037
100.3734685357
100.373684691605
100.374017335265
100.374231471397
100.374425750062
100.374378251059
100.374378965315
100.37441550854
100.374538295192
100.374363836248
100.37413381239
100.373753283815
100.373367049237
100.373460228104
100.373852738229
100.374157509579
100.374376998386
100.374584343584
100.374544141441
100.374431686538
100.374135619518
100.37380782505
100.373799101875
100.37336696912
100.372828872869
100.372193057936
100.371380931495
100.370991664636
100.3705739687
100.370333112819
100.370264529009
100.370007772829
100.369741458812
100.369467897182
100.369787706625
100.370126567854
100.370406744255
100.370168151545
100.369824143312
100.369588246501
100.369126869819
100.369149682669
100.369339964704
100.369078398168
100.368518147677
100.368770289095
100.36886661613
100.368423479674
100.368459724189
100.367930308855
100.367517968494
100.367162905809
100.366974201644
100.367476179666
100.367843074862
100.368145164249
100.367672071766
100.367825289207
100.368074518329
100.367782952855
100.368629860637
100.366982596171
100.365390733942
100.364381828523
100.364398131907
100.364973795182
100.365903412253
100.368039648819
100.365607675249
100.364676028019
100.363753458607
100.360207183511
100.357289709651
100.362067386079
100.361250041321
100.361357105433
100.358945247959
100.360549989297
100.35748705709
100.359579018512
100.361245018187
100.361431832352
100.362579595101
100.364061382225
100.365230509577
100.366470990794
100.367378905064
100.366801531423
100.368803942927
100.365928768749
100.373197324858
100.372162014379
100.370748862951
100.368965106535
100.367090527745
100.366274031812
100.36903914799
100.370692368399
100.365585059413
100.362855922956
100.361952377467
100.351399794937
100.354990165707
100.352223398809
100.355858574644
100.357614805076
100.368316567975
100.370386698135
100.372212801342
100.372435294048
100.372543846932
100.372630631566
100.372648064789
100.372661358374
100.372660930491
100.372682176521
100.372720745437
100.372663868042
100.372791744912
100.372753785218
100.372679376156
100.372607278173
100.372563287032
100.372700941087
100.372616034871
100.372723454048
100.372730691513
100.372600054895
100.372671766939
100.372674609217
100.372656796843
100.372644077512
100.372641807242
100.37259867245
100.372468455247
100.372498186626
100.372038035167
100.371275231743
100.372251823262
100.372514392483
100.37249526291
100.372586112582
100.372585097025
100.372593637863
100.37259660551
100.37262083224
100.372611640951
100.372590179066
100.372631313093
100.372544128837
100.372573221456
100.37266092375
100.372688452302
100.372659210558
100.372568209527
100.372588887701
100.372166018987
100.372027747971
100.372297727525
100.372216150635
100.372505634126
100.37237599161
100.372501696887
100.372594456981
100.372552219507
100.372580517331
100.372631202588
100.372648374795
100.372619519059
100.372570814304
100.372610592509
100.372569847059
100.372569817238
100.372479986458
100.372470119305
100.372228735379
100.371425678916
100.372409443311
100.3724882963
100.372520616603
100.372578469464
100.372576801611
100.372608093249
100.372624499624
100.372603507933
100.372592171275
100.372575521715
100.372616894265
100.372490120068
100.372292014204
100.37191864009
100.371472944835
100.372039213456
100.371972169792
100.372467664395
100.372232443657
100.372520231822
100.372619397626
100.372597921093
100.372623108114
100.372679125027
100.372608627442
100.37257024725
100.372560205691
100.372561692677
100.372533541807
100.372487950839
100.372404752423
100.372370236619
100.371154160821
100.369543521056
100.371667614816
100.372479682589
100.372437694913
100.372515782514
100.372570319805
100.372570129568
100.372584190399
100.372646905458
100.372683549846
100.37264394919
100.372606827292
100.372607002059
100.372487943301
100.372285174779
100.372601582782
100.372640986728
100.372648585499
100.372656373211
100.372639319423
100.372483884407
100.372318783307
100.371778950107
100.372442058917
100.372346802026
100.372632037564
100.372557719008
100.372671289302
100.372683283783
100.372693089679
100.372644110833
100.372709288019
100.372596696166
100.37259891165
100.372573415855
100.372536292621
100.372452831009
100.372493974993
100.371843011127
100.370202481035
100.372281931402
100.372535449178
100.372518972557
100.372575987395
100.372611349661
100.372576350662
100.372718598814
100.372737014164
100.372606510219
100.372598179489
100.372578250595
100.372523609431
100.372470978378
100.372447143257
100.372067825767
100.370346026525
100.369150866825
100.371349788055
100.372379635873
100.372483704493
100.372535504399
100.372577865253
100.372640915872
100.372584341434
100.372756070548
100.372664482982
100.372729569699
100.372708871797
100.372587253291
100.372431114852
100.371892985042
100.371299585558
100.371943514165
100.372478518811
100.372452147306
100.372717322016
100.372672044318
100.372750227315
100.372768482814
100.372753109683
100.372813639063
100.372639053716
100.372658362921
100.372600332259
100.372577482451
100.37253132447
100.372525053688
100.371718208956
100.370296424563
100.372404786948
100.372665888675
100.372641360707
100.372645448892
100.372729774902
100.372627388889
100.372851789603
100.37273596639
100.372828450617
100.372841203881
100.372757692673
100.372586655556
100.372123950628
100.372649361777
100.37272611436
100.372921702598
100.372871924871
100.372905190361
100.372878891405
100.372840710705
100.372895973167
100.372707731331
100.372723117968
100.372686405368
100.372665566415
100.372627341283
100.372622879392
100.372348938891
100.370732950052
100.369834749378
100.372068542586
100.372709793304
100.372692500121
100.372716530917
100.37275057586
100.372788947671
100.372727292011
100.372930799966
100.37282625465
100.372949415406
100.373004178909
100.372977223254
100.372870969879
100.37237605359
100.372842748539
100.37291965512
100.373018598857
100.373036176221
100.373074253159
100.372939169781
100.372995814086
100.37303388633
100.37297012928
100.372864257519
100.372809549884
100.372777591463
100.372842763766
100.372789317664
100.372786167945
100.372762541347
100.372627181915
100.372030081707
100.370392785113
100.36995256467
100.37191499947
100.372670540463
100.372813608885
100.372859161566
100.372858754613
100.372852054456
100.372890204786
100.37287328856
100.373068671222
100.372993482637
100.373061093068
100.373131439091
100.373113500392
100.372962172307
100.372526669747
100.37287190227
100.373085916777
100.373112608881
100.373048433162
100.373120802033
100.373159039916
100.373126945012
100.372994464505
100.372520666412
100.37282396373
100.372922523007
100.372990258536
100.373106814547
100.373162432739
100.373015614891
100.373084576065
100.372989520716
100.373011870088
100.373112021119
100.37290122442
100.372916725343
100.372995356867
100.372936917758
100.37294551177
100.372948505579
100.372946223416
100.372434582989
100.371842043144
100.372995046599
100.373035535012
100.373014867335
100.373006037643
100.373039170813
100.373006369035
100.373017304055
100.373092209541
100.373113706155
100.373100356386
100.373130560275
100.373062808123
100.372762327602
100.372939965701
100.373069455749
100.373059449851
100.373085910132
100.373086091549
100.373162200849
100.373030507266
100.373074662191
100.373059090026
100.373079689098
100.373096913471
100.373055436646
100.373206597223
100.37240759796
100.372422656575
100.373185409858
100.373142316612
100.373136370849
100.373135960145
100.373111286197
100.373122664893
100.37307732017
100.373167517049
100.373079070139
100.373117493175
100.373120795042
100.373002892142
100.372778711673
100.372321912558
100.372706403372
100.372939842915
100.373057084932
100.373058818016
100.373126831006
100.373103826074
100.372970026732
100.372806461975
100.372333104649
100.37268717539
100.372924448405
100.373059385105
100.373077386323
100.373096561576
100.373144991859
100.373183587083
100.373099609192
100.373135940566
100.373153789732
100.373154195878
100.373174080673
100.373214690371
100.373131607749
100.373343832865
100.372703494766
100.373186902032
100.373344186996
100.373271227032
100.373243866787
100.373231395403
100.373203046787
100.37319403309
100.373161916548
100.373219975475
100.373127547522
100.37315346773
100.373143998553
100.373028762129
100.372888437043
100.372399830083
100.372735474839
100.37296037971
100.373067370709
100.373113873546
100.37313156682
100.373064043656
100.373004901038
100.372998767635
100.372698364664
100.372359898037
100.372791357252
100.373008854551
100.373069225223
100.373067721329
100.373178721066
100.373164183513
100.373107447673
100.373160844174
100.373176913735
100.373216767581
100.373206722625
100.373162121461
100.373214182983
100.373239399578
100.373281894414
100.373270842954
100.373325507213
100.373211605838
100.373438403504
100.372906827586
100.373552301218
100.373375161848
100.373467906891
100.373400863748
100.373379400231
100.373367120435
100.373301535349
100.373249541987
100.373236237615
100.373249085167
100.373158959427
100.373208644787
100.373309176888
100.373380364242
100.373274533255
100.373223239942
100.373326203523
100.373394082061
100.373300611365
100.37333579352
100.373358454375
100.373516065429
100.373651045022
100.37364355289
100.373725572592
100.373614929126
100.373372930347
100.373335811548
100.373459866916
100.373355132065
100.373390639586
100.37333289759
100.373372794043
100.373443009791
100.37342796127
100.373513735633
100.373502739811
100.373642644722
100.373477735416
100.37375685782
100.373651753978
100.372080182735
100.372628821402
100.370781810979
100.37153085045
100.369783366818
100.370663624562
100.369074014747
100.368088427407
100.368670554327
100.367854729305
100.368712221974
100.367948221293
100.367489403175
100.368448727672
100.368030323457
100.367803554125
100.369246440838
100.369226476722
100.369361554689
100.371170343679
100.371321557793
100.372439086707
100.37259471307
100.37270085829
100.372719360796
100.372762911119
100.372751208167
100.372780600705
100.372791872248
100.372810141241
100.372763699697
100.37284085426
100.372769634025
100.372801419253
100.372854266943
100.372838531222
100.372771401304
100.372691442376
100.372817266505
100.37275590168
100.372798280955
100.372528630471
100.372428425233
100.372623509858
100.372452830079
100.37210634757
100.371746053378
100.371690489404
100.37195969944
100.372012760368
100.372489689091
100.372339683179
100.372075902201
100.371604583449
100.370966538275
100.370300798539
100.370798886853
100.371026589172
100.370907030778
100.371478238806
100.371487267384
100.371560495052
100.371339520008
100.371623602298
100.372087080042
100.372248195593
100.372512789135
100.372528926393
100.372662720001
100.372673367119
100.372586898275
100.372591727671
100.372621006713
100.372646190016
100.372669556047
100.372667939533
100.372675186642
100.372704475382
100.37269614427
100.372720893565
100.37272685821
100.372766152699
100.372804000086
100.372826604714
100.372841335157
100.372866006757
100.372854140286
100.372954081743
100.37293342586
100.372841920341
100.372911490691
100.37275479593
100.372771495719
100.372756094075
100.372750022949
100.372712155179
100.372681700233
100.372976491546
100.372960647198
100.372959324245
100.372992105032
100.373031656326
100.373081250231
100.373130124008
100.373272604211
100.373324084008
100.373381951922
100.373428818372
100.373534288411
100.37360225221
100.373771181508
100.3740707035
100.374317968099
100.374537737162
100.374718898682
100.374658599905
100.374550672812
100.374263826015
100.373861721981
100.373512062454
100.373693618509
100.373288196687
100.372855798473
100.372275561681
100.371465555761
100.371112264566
100.37071153101
100.370501455814
100.370463818765
100.370310352657
100.370657346008
100.370402749549
100.370037581126
100.369677627056
100.369526963241
100.370123020788