/*--------------------------------*- C++ -*----------------------------------*\
| =========                 |                                                 |
| \\      /  F ield         | OpenFOAM: The Open Source CFD Toolbox           |
|  \\    /   O peration     | Version:  v1612+                                |
|   \\  /    A nd           | Web:      www.OpenFOAM.com                      |
|    \\/     M anipulation  |                                                 |
\*---------------------------------------------------------------------------*/
FoamFile
{
    version     2.0;
    format      ascii;
    class       volScalarField;
    location    "1.8";
    object      p;
}
// * * * * * * * * * * * * * * * * * * * * * * * * * * * * * * * * * * * * * //

dimensions      [0 2 -2 0 0 0 0];

internalField   nonuniform List<scalar> 
81489
(
99.999123973661
100.003948262269
99.9971589633339
100.001427412547
100.006742528783
100.00341652422
100.003038873492
100.00309092757
100.003260992186
100.002876844076
100.003481909661
100.006568052942
100.010412283419
100.009246691509
100.00744867847
100.008453071152
100.005600482785
100.003216986093
100.003234960134
100.005613773479
100.008426479567
100.007404015902
100.009211545304
100.010365702098
100.006544833833
100.003449934465
100.002844439191
100.003234388282
100.00306207164
100.003006115967
100.003381447917
100.006720967547
100.01053213431
100.0093795689
100.007441215685
100.008453273688
100.005641693432
100.003281844631
100.003265133706
100.005628803888
100.00847731322
100.007488957208
100.009419775843
100.010572298526
100.003730643967
100.003018800576
99.9987416871592
99.9992528285766
100.000609647201
100.001028637214
100.001056250319
100.000631992314
99.9992332534998
99.9987058925574
100.002987889516
100.003701134994
100.001423684104
100.000356916098
100.00105722262
100.001295070641
100.001248510645
100.000922302076
100.000583349756
100.001558632316
100.003691093287
100.002964634238
99.9986805992175
99.9991911530577
100.000587625872
100.001012581443
100.000982884013
100.000557902549
99.9992145575228
99.9987192893354
100.002997064814
100.003718496151
100.001562710325
100.000598391059
100.000940299174
100.001267741598
100.001314871187
100.001074281191
100.000373769931
99.9971356437989
99.9992678281602
99.9991766696623
99.987872849435
99.9902676730001
99.9904014449736
100.00071029308
99.995331273474
99.9934163919478
99.9958369433386
99.9979932046448
99.9980232348481
99.9958393844433
99.9933666692575
99.9952898567606
100.000679336182
100.000688485247
99.9971616903512
99.9971230969317
99.9992605897169
99.9981052721525
99.9980815929966
99.9993096939959
99.9972058077001
99.9970472454618
100.000639571139
100.000687897664
99.9952758107634
99.9933186303874
99.9957897854517
99.9979766502811
99.9979487778549
99.9957780960673
99.9933633763214
99.9953151966
100.000718204118
100.000675504696
99.9970469998512
99.9972200062815
99.999318182501
99.9981007345594
99.9981252585173
99.9951874106972
99.995138872723
99.9879159866487
99.9581163282785
99.9580367940057
99.9524386490733
99.953411465574
99.95857645482
99.988957954652
99.9959874471663
99.9953219437515
99.9953176263871
99.9959129981426
99.9985444875955
99.9903990584748
99.9902280723608
100.003958334441
99.9991680026681
99.9951586313013
99.9951125140387
99.9988906929598
100.003538455251
99.9902177086687
99.9904009563802
99.9888986047283
99.988936965396
99.9904068096581
99.9902577451783
99.9525719425965
99.9523505278716
99.9538591473672
99.9538475762578
99.9523337087607
99.9528603331789
99.9536851873135
99.9537051559694
99.9586249703795
99.9889215513815
99.9830203372565
99.9663112167455
99.959880437955
99.9597202746119
99.9572655203062
99.9583178902329
99.9528746620698
99.953509239782
99.9524900093601
99.9580589675001
99.9878425686417
99.9878856192934
99.9581390915782
99.9526207743675
99.9535847478448
99.958663627642
99.958615613052
99.9534894481391
99.9528752939641
99.9583315169159
99.9582027900027
99.9574796166255
99.9574897677686
99.9582323386613
99.9583489707409
99.9572737008802
99.9585949061946
99.9585866177355
99.9592093707567
99.9591674282572
99.9582145793624
99.9523477244816
99.953866310536
99.95387993713
99.9523680224244
99.9528895154459
99.9537357083808
99.9537150748712
99.9572791193404
99.9585891899103
99.9592248974469
99.9591759047784
99.9586690926737
99.9586738698494
99.9591961569469
99.9592336065328
99.9571543214967
99.9569646313028
99.9569588188696
99.9571354153943
99.9570743942582
99.9569381663973
99.9586475691909
99.9574820907079
99.9574717550407
99.9581862424562
99.9582988332359
99.957271213358
99.9585794323618
99.9569477966477
99.9569567359769
99.9571542113864
99.9571030823496
99.956981488078
99.9569810970041
99.9571118862615
99.9547573463316
99.9547812287845
99.9546971568688
99.9546853880323
99.9547452648174
99.9547024514193
99.9546555714066
99.954651378707
99.9569369571468
99.9586418380006
99.9591496490016
99.9591924549181
99.9571202792409
99.9547236214337
99.9546658881287
99.9546808007716
99.9547688467108
99.9547531580307
99.9547254952206
99.9547243368204
99.9528147014195
99.9528397101938
99.9528423720487
99.9527630279126
99.952742694567
99.9527795653901
99.9527529139805
99.9526983213787
99.9526888445928
99.9527165844351
99.9546863036881
99.9570667420985
99.957638416902
99.9549953689785
99.9530040030941
99.9527391886239
99.9527028986982
99.9527308051818
99.9528177085938
99.9528335066987
99.9528120225881
99.9510763950846
99.9510872590766
99.9510987428338
99.9510841812745
99.9510131215111
99.9509810771207
99.9509764441868
99.9509458872566
99.9508855324905
99.9508726321803
99.9508870272714
99.9509077227377
99.9509049692241
99.9509532464659
99.9510382434082
99.9510754170625
99.949183939507
99.9492065226555
99.949229649728
99.9492280308135
99.9492107548199
99.9491242727929
99.9490716693785
99.9490229907752
99.9489709441692
99.9488858920486
99.9488700155812
99.9488766964793
99.948904735694
99.948930473899
99.9490191919992
99.9491219144191
99.9468492078741
99.9469167113954
99.9469436258017
99.946978100873
99.9469815811204
99.9469574287116
99.9468162638864
99.9467400567286
99.9466750993141
99.9465651346415
99.946400743464
99.9463788403525
99.9464052533434
99.9464322634427
99.9464737683344
99.9466436539506
99.9433730758072
99.9436824042919
99.9437937741736
99.9438210982261
99.9438545994655
99.9438617895148
99.9438311109549
99.9436520999118
99.9434921949299
99.9433878695574
99.9431788489868
99.9429219613595
99.9428677292774
99.9429274811916
99.9429342363335
99.9430237771755
99.9377505974348
99.9383448524624
99.9384593638875
99.9386332631456
99.9388608139998
99.9390064787917
99.9388925858606
99.9387889917497
99.9388329621823
99.9385054614549
99.9380518126267
99.9376296588378
99.9376359339076
99.937485047244
99.937246803627
99.9372526096389
99.9221638637102
99.924012351444
99.924609181913
99.9235666888106
99.9240178684652
99.9260434106085
99.9263500087219
99.9246011146793
99.9244324987099
99.9255701230919
99.924837584023
99.9229639297588
99.9223305836746
99.9234619540323
99.923212164904
99.9218502768993
99.9345622647071
99.9356135652193
99.9329999652543
99.9338131989433
99.9378792927844
99.9383443487888
99.9354193069401
99.9359032602894
99.939391904289
99.9394923102225
99.9355615477028
99.9343992613405
99.9368058981843
99.9354626126204
99.9316245728684
99.931215469517
99.98865747513
100.041798455093
99.9991947849756
99.9998873534595
100.043141047501
99.9904672604783
99.9908938747506
100.045263890109
100.002955322266
100.004906218183
100.049508617129
100.082735072842
100.082660979808
100.050089136887
99.9961540956059
99.9956605946787
100.119905615651
100.220108978069
100.178472523962
100.178731174601
100.151217254472
100.144462122998
100.142882012238
100.005312974871
100.048240625771
100.07901242284
99.9938851231139
99.992417651992
100.045653436545
100.001622732739
100.000383456563
100.042751003818
99.9892170434427
100.073795974672
100.073478016328
100.166925085268
100.140986341677
100.135887855646
100.135098407179
100.140923954714
100.16885886905
100.169973787051
100.144619846255
100.14073428465
100.14266307472
100.150174884435
100.242194941977
100.28338505326
100.26253674262
100.26257211545
100.283538961188
100.272609725165
100.243605524285
100.337997044241
100.372540878056
100.346401507307
100.336674203407
100.336493327954
100.344048126642
100.280574895312
100.241209423877
100.272380512654
100.336684497241
100.370627893265
100.391757922522
100.39760964337
100.399352387348
100.403131473799
100.404020001406
100.403131861446
100.402368206179
100.401901964438
100.40159140266
100.401489201066
100.401824559319
100.402347099952
100.402814969292
100.403230368902
100.403629970043
100.404042279073
100.404657585426
100.405878686068
100.408707598946
100.414671702153
100.427451741462
100.449628446614
100.488367519253
100.48750688514
100.425547673788
100.370582481403
100.315160604091
100.283720451361
100.304100165722
100.303354027114
100.301182134362
100.301505864764
100.302550421165
100.303615242279
100.304849242651
100.306448899731
100.308362265053
100.310379431691
100.3122235367
100.313624455809
100.314352666687
100.31307317861
100.311541177381
100.30986629143
100.308162980631
100.306471109426
100.304786261968
100.303145873242
100.301646077409
100.300392298451
100.299405552427
100.298661220393
100.298133842476
100.297761764066
100.297503022791
100.297326412598
100.297213932186
100.29717073524
100.297215305842
100.297367224184
100.29767910775
100.298207071158
100.29915301111
100.300509924758
100.301949893573
100.302473977496
100.302423231523
100.302557396894
100.302448089597
100.302649725524
100.302518579086
100.302574015965
100.30248153069
100.302373292026
100.302130792984
100.301841589489
100.301847488368
100.301884150858
100.302251765325
100.30222320199
100.302153845206
100.302364849551
100.30246738313
100.302539258407
100.302507944782
100.30260847191
100.302448732003
100.302523295828
100.302402634582
100.302461779111
100.302030464244
100.301144834274
100.302172496551
100.302457278225
100.302422171601
100.3025006288
100.302459907394
100.302589366165
100.302510082105
100.302526795918
100.302468762771
100.302364201805
100.302386377477
100.302212056739
100.302321091345
100.302510893616
100.302494793973
100.302544176733
100.302481735614
100.302525524428
100.302518236247
100.302579576537
100.302470780669
100.302485500845
100.302421569776
100.302436035559
100.302172852102
100.301756849031
100.302332814525
100.302444162087
100.302452025883
100.30249375712
100.302491898819
100.302580010517
100.302544070181
100.3025489075
100.302558365475
100.30256094249
100.302630615531
100.302607486744
100.302546156664
100.302217580083
100.301970977433
100.302256091764
100.302547345941
100.302472245069
100.302674741724
100.30271985848
100.302688053705
100.302597295225
100.302645723082
100.302601479666
100.302515332936
100.302508061361
100.302480615139
100.302489621316
100.302353662632
100.302411222268
100.301777964201
100.301051206718
100.302094395772
100.302419983513
100.302432004858
100.302518472258
100.302540062113
100.302534591076
100.302574333474
100.302647441696
100.302661426652
100.302633811069
100.302641716874
100.302753329815
100.302824838562
100.302794544676
100.302674931231
100.302824391018
100.303010851722
100.302934758363
100.302917246387
100.302822770207
100.302684294198
100.302666679203
100.30269400306
100.302625309345
100.302587115302
100.302557712467
100.302578067382
100.302576167249
100.302483964098
100.302475477723
100.302130363013
100.301831127908
100.302374292388
100.302543215479
100.302550994647
100.302618475535
100.302617360912
100.302655887504
100.302664589677
100.30272539535
100.302748230547
100.302773933064
100.302933369879
100.303094208033
100.303012743646
100.303102280744
100.302995388405
100.302808820056
100.302831360312
100.303046630375
100.303202619831
100.303223707927
100.303103397338
100.302903419859
100.303165764602
100.303249501063
100.303376049913
100.303449924952
100.303451521289
100.303336619994
100.303266385433
100.303109843007
100.302878002443
100.302869082588
100.302792525459
100.302734120859
100.302704434524
100.302717333921
100.302664687972
100.302613124608
100.302619363477
100.302340061956
100.302283434384
100.302592283469
100.302681998344
100.302679898302
100.302714721555
100.30280948748
100.302771812096
100.302829059166
100.302843339361
100.302867132853
100.302901251472
100.302933486145
100.303176404076
100.303344223145
100.30345504153
100.303427261605
100.303422018399
100.303285481768
100.303267865117
100.303065246085
100.302995619874
100.302934416089
100.302903604225
100.302859399274
100.302810469541
100.30283667998
100.302819321638
100.302816379968
100.302742886101
100.30249972814
100.302655320634
100.302734100084
100.302789301293
100.30289011085
100.302862620041
100.3028770809
100.302953224976
100.303020601694
100.30303620892
100.303093738267
100.303348945556
100.303488423085
100.303491957156
100.303401183872
100.303201512388
100.303441082073
100.303476594025
100.30362647635
100.303616613895
100.303524855741
100.303404246547
100.303193149488
100.303140515864
100.303042980687
100.303076253683
100.303039230401
100.302976223935
100.302981560379
100.302941821353
100.302873552098
100.302915059497
100.302902823366
100.302545510598
100.302628892783
100.30284356887
100.302732995019
100.30298378776
100.302937041848
100.303039841628
100.303000521304
100.303078688635
100.303127202471
100.303178638557
100.303267143351
100.303291378401
100.303472396444
100.30362677285
100.303588632954
100.303625981716
100.303491292091
100.303537254612
100.303674100186
100.303753295506
100.303702830039
100.303863121396
100.303928623866
100.30390760535
100.303788700681
100.303654168091
100.303435778821
100.30332468623
100.303269893616
100.303240930813
100.303175395195
100.303122760473
100.303205228367
100.303030016517
100.303069658066
100.302977834802
100.302943572382
100.302587644659
100.301885817
100.301027134171
100.302128690158
100.301410485691
100.300606202241
100.299755392564
100.299067279507
100.300360921801
100.299674731623
100.29856096138
100.297875589563
100.297444253109
100.297203184194
100.297104283747
100.29711272599
100.297210788402
100.297376866504
100.297623138063
100.297975474441
100.298474317017
100.299185727611
100.300146270608
100.30139370113
100.30289727749
100.304543369903
100.306201999931
100.307836313543
100.309466826213
100.31106257168
100.312500184827
100.313690807435
100.314575095688
100.315310629965
100.315621208103
100.314604571594
100.313262693294
100.311669205267
100.309955378357
100.308229832664
100.306534779919
100.304869571148
100.30326349039
100.301788101783
100.300543184668
100.299544925427
100.298786465627
100.298243925741
100.297861420144
100.297594452246
100.297409102575
100.297285276191
100.297220933537
100.297228600056
100.297332219747
100.297581742168
100.29803165891
100.298898640843
100.300207586637
100.301763162383
100.302462427299
100.30255445233
100.302596807288
100.30260456463
100.302688594047
100.302557129168
100.302681541032
100.30258886917
100.302497380233
100.302247583838
100.30192096604
100.301878965991
100.301323902689
100.300694166212
100.299904538928
100.29997533689
100.300177171867
100.300419437106
100.300850313508
100.301411371151
100.30133384514
100.301022160351
100.300859995529
100.300751145873
100.301327649306
100.301418875361
100.301580153408
100.3018403603
100.302115953159
100.302329119916
100.301970827509
100.301633975323
100.30118135586
100.300594547875
100.299674974154
100.300206894142
100.300948873182
100.300949200702
100.301478756576
100.301694180524
100.301216859954
100.301635180555
100.301936441367
100.302378329408
100.302326446796
100.302131883591
100.302508829566
100.302664852373
100.302869851169
100.302543949616
100.302191639439
100.301768819401
100.301054419227
100.301490286368
100.301962347434
100.30204321047
100.302553822555
100.302839729235
100.302354498408
100.302564922672
100.30291398169
100.302979681241
100.303260275655
100.303129819295
100.302900010801
100.303018568785
100.303020052928
100.30293278035
100.30278345093
100.302780163385
100.302711556048
100.302680967692
100.302606079136
100.302552555034
100.3024874371
100.302458689975
100.3024507591
100.302436498872
100.30241470232
100.302423526152
100.302404197118
100.30237526156
100.302350362774
100.302477650006
100.302448827698
100.30263442251
100.302447257486
100.302686945783
100.302532896184
100.302632765224
100.302534858244
100.302440174249
100.302176229642
100.302042534154
100.302284406254
100.30248921598
100.302586803995
100.302617036743
100.302630976594
100.302657583773
100.302626824908
100.302536131448
100.302266518142
100.301955708003
100.301379338917
100.300779860674
100.299931547582
100.299902480746
100.298739677553
100.297562471054
100.295684990842
100.295801988302
100.297366205033
100.297638733279
100.298743940599
100.298785830168
100.297696863563
100.298187722197
100.298697874696
100.299248743686
100.297884633116
100.296825583893
100.295248866415
100.296639839255
100.297241250893
100.297995306261
100.298631962656
100.2991714647
100.299979501636
100.300107620975
100.299750444648
100.298970752463
100.298231535064
100.29799758003
100.2986741134
100.29821111738
100.299340991377
100.301632242102
100.302018800558
100.302105095451
100.302059160229
100.301917313523
100.301800551534
100.301657968079
100.301809021866
100.301579740842
100.301509784444
100.301685515676
100.302441143037
100.302564550491
100.302619207123
100.302653419626
100.302594802312
100.302695396483
100.302703937993
100.302662525278
100.302632269983
100.302544841007
100.302245550791
100.301984570382
100.301352425807
100.300771408483
100.29995048111
100.298651391619
100.297546752899
100.295525189635
100.295519322988
100.293037830216
100.289978602699
100.290442979078
100.291045400673
100.292130781
100.293226057816
100.294236463749
100.292074881465
100.290151815422
100.291926654238
100.293491251498
100.294415274763
100.2956686572
100.29574788127
100.294913976185
100.293516847246
100.292959608962
100.294342803736
100.295727938988
100.296298330363
100.295991047901
100.297364748302
100.298795165806
100.301180600853
100.30169338662
100.301453824745
100.300536158709
100.301255148752
100.301123827646
100.30019759208
100.301050779383
100.301046746438
100.301507376631
100.301682814814
100.302444154186
100.302572772924
100.302626230284
100.302659039846
100.302598068127
100.302676310411
100.302575894063
100.302698597549
100.302610829302
100.302535944112
100.302246039227
100.30198898816
100.301388067618
100.300759559288
100.299961077407
100.298715967417
100.297591696608
100.29568260342
100.293275600398
100.29031108114
100.28992685514
100.286169939978
100.281874124726
100.259669212648
100.259290714627
100.26307727761
100.280278463983
100.282883113033
100.281886598534
100.286196351705
100.286835190716
100.287681861067
100.28161617175
100.285270786444
100.28787405693
100.284339507635
100.279703778238
100.271979778799
100.279391794314
100.284615248962
100.284487968253
100.287223858977
100.289420854848
100.287502367796
100.290492845607
100.291971031457
100.293397512085
100.294579960313
100.294507413767
100.292919095918
100.29161384716
100.291241547589
100.292649088293
100.293891025582
100.294461703099
100.294884760503
100.293156421882
100.294119171907
100.294335669469
100.294514356295
100.294517170103
100.294819395044
100.294441228082
100.292820544068
100.293683862105
100.292424640988
100.295400536182
100.293898129757
100.293762322222
100.294033572364
100.293968355699
100.293552627777
100.294226746046
100.294128157738
100.293691883581
100.292535810371
100.291733727408
100.293531312228
100.292148347841
100.292062422451
100.292360930835
100.292780107795
100.292159009024
100.291883531165
100.292045550407
100.29847691544
100.298033741107
100.297978567755
100.298234537436
100.29974525167
100.301752184167
100.300312616203
100.299936776316
100.300300296312
100.297070611588
100.298380047392
100.297177887505
100.295172640143
100.294645943511
100.296330156244
100.297891348683
100.296926973185
100.296794793112
100.29564932407
100.29489410724
100.295548635959
100.295626338494
100.298647387839
100.300132163925
100.30166733747
100.302216078347
100.302336538912
100.302292155175
100.302022858669
100.30192377656
100.301578056829
100.30137328844
100.300746400546
100.300125502205
100.299825235148
100.299809380937
100.30019072431
100.301752417076
100.302467491945
100.302567623193
100.302612209095
100.30261787689
100.302698929219
100.302710418718
100.302552484697
100.302663743747
100.302575156778
100.302495667787
100.302236106892
100.301944033869
100.301411090481
100.300763401568
100.29994550586
100.298871855607
100.297651389006
100.295882775427
100.293654812541
100.290966454663
100.287663692924
100.281576308653
100.280199390162
100.263739357948
100.245336196228
100.167988662959
100.183480238044
100.20207617546
100.205403276873
100.201438397873
100.196345687771
100.206864824004
100.203441942673
100.198081765812
100.209227780625
100.20566368074
100.198768167604
100.208566863634
100.205218159858
100.19807373224
100.20741950672
100.204095192842
100.196998088635
100.206079295841
100.202802351181
100.195921974629
100.204003597732
100.201828210256
100.202344880942
100.201761245736
100.200502434125
100.200517076681
100.200746819461
100.200271941882
100.200264831637
100.200620500232
100.200139743904
100.199833789604
100.200360788121
100.20029108932
100.200016784355
100.200095545027
100.200263391942
100.200409904038
100.200898226466
100.200575462837
100.200254455297
100.199979814709
100.200555586342
100.200419681116
100.200088914766
100.199401539505
100.199342794036
100.199965462811
100.200349460967
100.200521655143
100.199958961546
100.200253790167
100.200579708242
100.200904734212
100.20043063077
100.200258943739
100.200080446276
100.200024166426
100.200293108184
100.200364370305
100.19982676145
100.200132832111
100.200614722702
100.200270104056
100.200287184094
100.200698330291
100.200479261651
100.200479845638
100.201740657473
100.20232496952
100.201815775481
100.203967804039
100.203140499064
100.204233772758
100.202589408293
100.201814341052
100.20342932621
100.20313320911
100.201683122707
100.201291004804
100.201553926886
100.199138871252
100.199962579372
100.200401803417
100.200484622123
100.200554136891
100.200293778505
100.199846725646
100.200331193905
100.199566924967
100.199564287557
100.20062561421
100.199637949076
100.201339554521
100.200870690464
100.200815008496
100.200524367344
100.200599218454
100.200450553464
100.200430903987
100.200477971416
100.200951050567
100.200285826289
100.200185427237
100.200151941682
100.200304942897
100.200838533929
100.200384590011
100.200399198297
100.2004462479
100.200559317076
100.200154045124
100.200302206951
100.200785134921
100.201538697173
100.200097851753
100.2000991404
100.199908165113
100.199932514767
100.200140096296
100.200094495383
100.201526080929
100.200793536155
100.200311582885
100.200152842543
100.200553518666
100.20074404379
100.200912887621
100.200917406494
100.200736585137
100.200599828684
100.200646872872
100.200643641014
100.200607811149
100.200721601594
100.200392952515
100.200400738711
100.200441803022
100.200980775631
100.200145630626
100.200361689193
100.20181959561
100.201352465844
100.201531567158
100.201142714033
100.202349106561
100.201664979372
100.200882075249
100.201262593198
100.201511016544
100.20151295144
100.201220572292
100.200846995269
100.201660717433
100.202328037807
100.201144405802
100.201533279006
100.201343483845
100.20182797082
100.200873794695
100.20262835586
100.201923716017
100.201816406968
100.200774175559
100.200690333914
100.200030077441
100.201130611595
100.199765148606
100.200862008944
100.20144780603
100.200426038624
100.201675260623
100.201222671892
100.203115810583
100.204079485598
100.201057941906
100.195885834429
100.202755077263
100.206046518332
100.196959399175
100.204056328325
100.207400903908
100.198029251687
100.20518807576
100.208556855032
100.198683291122
100.205628485099
100.209268312425
100.198058932205
100.203430819146
100.20678496732
100.196441794021
100.201873985623
100.202288807007
100.199565430709
100.196966415465
100.196888906191
100.201905137115
100.199488463026
100.197543277278
100.193661816574
100.198404902916
100.198465804612
100.193728600785
100.186018493814
100.185631544027
100.164266128287
100.237448581424
100.236812493904
100.165060709146
100.168642594027
100.183752268991
100.202030756518
100.205330350934
100.193463497239
100.188543693472
100.193732779739
100.19190163059
100.197907132556
100.205913000636
100.201975207287
100.202306827355
100.206213626615
100.20303693043
100.202433891076
100.204944403886
100.202241192025
100.201722436611
100.203354698507
100.20114013807
100.200873246133
100.201788323618
100.199966738721
100.20380396083
100.202847501493
100.201115800124
100.20167614835
100.203025910139
100.201671325468
100.201273729419
100.200388625092
100.202591487484
100.202645575889
100.200207773141
100.204174595594
100.204648136108
100.201694278736
100.20500208646
100.206182179422
100.202744759775
100.20599178462
100.206994780158
100.203497719491
100.201443111649
100.186839714498
100.176614623484
100.177803916934
100.187223541507
100.184681322927
100.183321151292
100.190393959746
100.178281328585
100.18215993352
100.176007050193
100.176240852723
100.18280613476
100.228991171862
100.254463924561
100.230753509567
100.15907805387
100.160356686562
100.185208616048
100.151812943335
100.136318145122
100.205455017626
100.247759101263
100.270678956491
100.279844151298
100.285726372821
100.287950473929
100.28766530424
100.282993414921
100.275314702809
100.261683503397
100.268650941896
100.277094647754
100.284466444149
100.288085208468
100.291297567054
100.293860147395
100.293788884226
100.296359420011
100.29792919433
100.297246325828
100.297099397663
100.297076687905
100.297225251721
100.300092226032
100.300471788832
100.301798331336
100.302486077298
100.302461611285
100.302653385502
100.302463579647
100.302449036714
100.302672331215
100.302535363392
100.302607835914
100.302525957532
100.302425005551
100.302194637238
100.30190632887
100.301416519467
100.300825885521
100.30003788008
100.299012022734
100.297865386765
100.296175324052
100.294292925108
100.292086633655
100.289337207201
100.285243607123
100.280936707759
100.274369450337
100.254568854128
100.228748815176
100.183334386365
100.176979158536
100.176593448553
100.182661168636
100.193773267994
100.188398604848
100.193027118021
100.192004771265
100.198090740537
100.205971685731
100.201882643225
100.202263141014
100.206190576783
100.20303126916
100.202428158072
100.204906752787
100.202238449364
100.201745716633
100.203340416705
100.201136085887
100.200903785636
100.2017674412
100.199973799279
100.201793002639
100.204064811324
100.203093627514
100.201671958849
100.201273114829
100.201575785631
100.201793977161
100.203383020374
100.203114831917
100.204241070264
100.202602803607
100.202196278038
100.202876779265
100.201359442496
100.200834161737
100.202158623039
100.203778602352
100.202831507332
100.201111858538
100.20166942364
100.200426605867
100.201449929448
100.200861858932
100.199779221849
100.201130738342
100.200043723795
100.200694961958
100.200776835845
100.201839877389
100.201962425603
100.202693710622
100.200869371069
100.200219661207
100.200873540363
100.200219350821
100.20077974821
100.200445629421
100.200865241407
100.201509694205
100.201112326205
100.200513210371
100.20054973693
100.202961098766
100.205022113955
100.202671815177
100.201808178429
100.202010211187
100.20241049087
100.202169291528
100.202636219811
100.202638855063
100.20212832176
100.202386486838
100.201982085017
100.202664320015
100.205049574226
100.202978632373
100.202977649037
100.203839338083
100.202890008339
100.201988700793
100.2019121688
100.20230202052
100.201360881612
100.200545678456
100.20196687922
100.201349780405
100.200059065549
100.202541988511
100.202898273334
100.202137898174
100.201966804367
100.202635573831
100.204267514749
100.203582551703
100.202546852557
100.203328804065
100.20607636688
100.205408534792
100.202334356947
100.202946407582
100.20772095421
100.208226239893
100.201347169352
100.18928512435
100.183002260063
100.177059915254
100.180266967444
100.181285876492
100.185091257951
100.186002855643
100.182038470302
100.173744503977
100.173488801121
100.173854180189
100.169978118023
100.159172839638
100.161957196868
100.177911028929
100.175242423403
100.177144912503
100.195765458463
100.198394130461
100.21084909879
100.229739697219
100.217917088145
100.223377921069
100.243074942183
100.261854800098
100.244328750804
100.264736155107
100.276057849604
100.281033537855
100.274526619278
100.273814499866
100.281487359906
100.287179326619
100.290757073923
100.293402023493
100.292906802568
100.29245830962
100.29208805222
100.296875634679
100.297447052621
100.297927511909
100.296454922122
100.297099862534
100.29899101933
100.297129019441
100.298947334019
100.299623088369
100.301347175482
100.301553000049
100.301278383109
100.30190757389
100.299298503506
100.300243805604
100.300215900547
100.299583307806
100.300122164117
100.299529308121
100.299546185008
100.299454371443
100.299468891565
100.299568679933
100.299905742468
100.299981467253
100.300213426636
100.300399651266
100.300294001314
100.299834681597
100.299266910391
100.299110659548
100.299414531962
100.299576686955
100.299671391908
100.299563173873
100.299555137814
100.299600059686
100.299496544825
100.299508023105
100.299361633358
100.299293382298
100.298657220322
100.29890352078
100.299051082792
100.299383282429
100.299685470087
100.299701929956
100.299413450873
100.299186623767
100.299470059259
100.299673425306
100.299621301316
100.299399429369
100.299801951059
100.299544394248
100.299393916003
100.30018529112
100.300788195327
100.300335548567
100.300368524097
100.30000955247
100.299566245352
100.299362613751
100.30002069825
100.300586422993
100.300555317205
100.300031325494
100.300297414798
100.300737977399
100.300682120179
100.300563626589
100.300071838779
100.300128551364
100.300643155302
100.300717748692
100.300884825883
100.300883928519
100.300616640033