/*--------------------------------*- C++ -*----------------------------------*\
| =========                 |                                                 |
| \\      /  F ield         | OpenFOAM: The Open Source CFD Toolbox           |
|  \\    /   O peration     | Version:  v1612+                                |
|   \\  /    A nd           | Web:      www.OpenFOAM.com                      |
|    \\/     M anipulation  |                                                 |
\*---------------------------------------------------------------------------*/
FoamFile
{
    version     2.0;
    format      ascii;
    class       volScalarField;
    location    "1.8";
    object      p;
}
// * * * * * * * * * * * * * * * * * * * * * * * * * * * * * * * * * * * * * //

dimensions      [0 2 -2 0 0 0 0];

internalField   nonuniform List<scalar> 
80571
(
100.261127729453
100.260711307115
100.260170538563
100.26306079699
100.267520004875
100.267547199452
100.267943683959
100.268641580863
100.26646884594
100.266523362916
100.266714343928
100.266596764817
100.266706241566
100.266881903725
100.266633306253
100.26648679434
100.268650006984
100.267923530787
100.267523848664
100.267498929513
100.2682056657
100.268751088788
100.266473511591
100.266786668548
100.267046117775
100.26635814898
100.266358137559
100.267046376449
100.266786868967
100.266473956368
100.26875534925
100.26820899136
100.267500542727
100.267524420559
100.267922863575
100.268648190842
100.266488415987
100.266634704844
100.266881036531
100.266707319499
100.266598277994
100.266715679026
100.266526627155
100.266471526015
100.268640653858
100.267943087242
100.267547591563
100.267521804407
100.268232254367
100.268782367522
100.266493905826
100.26680848199
100.267071598176
100.266383840879
100.26638426861
100.267072611145
100.26680909583
100.266493652407
100.268778745755
100.268229220172
100.263475975309
100.263747006663
100.26310098037
100.262807308974
100.263169410544
100.263443628334
100.263443613845
100.263169025314
100.262806112019
100.26310064525
100.263748014174
100.263476200771
100.263061811231
100.263441937704
100.264160003691
100.264557907862
100.264609365392
100.264737616177
100.264361617336
100.264733969211
100.264796205526
100.264388494442
100.264698090074
100.264592411922
100.264554388376
100.264145623084
100.263438737357
100.263042228931
100.263457986031
100.263725098852
100.263077584512
100.262782543641
100.263144030986
100.263418756839
100.263418929603
100.263144552906
100.262782870637
100.263077761166
100.263725178949
100.263458460546
100.263041318113
100.263438324014
100.264144953412
100.264554388281
100.264591240825
100.264694572532
100.264386324515
100.264793732071
100.264731417253
100.264359914866
100.264734546093
100.264608206739
100.264558079013
100.264159188423
100.263441167695
100.26067086038
100.261697093611
100.260020067606
100.260666403332
100.260985034004
100.26072582632
100.261281683254
100.259388171628
100.259362297749
100.260383536227
100.260383728175
100.259360995385
100.259385658606
100.261280837326
100.260728669419
100.260803116487
100.260171418233
100.260670366552
100.261697531283
100.261863274925
100.263101319029
100.263311815917
100.262200749912
100.262100723073
100.262050031774
100.262105791054
100.263226141289
100.263057737505
100.261845460386
100.261682203761
100.260658862008
100.260156950189
100.260781318843
100.260702769059
100.261255864866
100.259361160848
100.259336039887
100.260358669136
100.260358786839
100.259336352587
100.259361775301
100.261256256438
100.260702237997
100.260781929017
100.260155947988
100.260659368676
100.26168160192
100.261846611874
100.263056901201
100.263218612411
100.262100760357
100.262047311529
100.262098202713
100.262194802291
100.263303542318
100.263100250799
100.261866184231
100.260007115746
100.251951085356
100.252286184004
100.252342331415
100.252537276191
100.252802939482
100.261685345623
100.260358604228
100.260526050707
100.26052539456
100.260356161676
100.261686791817
100.260985780722
100.260660935256
100.260710704329
100.260021527889
100.260001228492
100.260119690366
100.264506995089
100.261763482155
100.26169222038
100.264417465742
100.26011002703
100.259992623792
100.260019471434
100.26061866145
100.260694393022
100.261113780165
100.261959413767
100.262701528034
100.262570934239
100.263108897211
100.265352176509
100.265383952851
100.263973666181
100.262580443022
100.261592892013
100.260980257806
100.260695276166
100.260695251852
100.260980161947
100.261592658532
100.26258001947
100.263973200315
100.265823086049
100.266048312787
100.264542178026
100.262892125836
100.261677813536
100.260837387954
100.260333832072
100.260085525336
100.260085553816
100.260333931202
100.260837596129
100.261678167133
100.262892646982
100.264543041497
100.266048136622
100.265822983708
100.263879565435
100.264186265056
100.264004195252
100.263542853265
100.263316428115
100.262744584375
100.263525776969
100.263260206063
100.261752278173
100.258685504831
100.253361440629
100.251946201065
100.252263246889
100.252325900101
100.252515345408
100.252771657809
100.252771567711
100.252515031751
100.25232506552
100.252262897675
100.251946044875
100.252018401825
100.252011192122
100.250841962582
100.25071268014
100.250791628837
100.250657083615
100.250728009959
100.250791369
100.250791384056
100.252803350937
100.252537395427
100.252342691733
100.252286403986
100.251950833961
100.252009073349
100.25201676353
100.250836988831
100.250691212134
100.250757608788
100.250630569478
100.250692636311
100.250748356818
100.250748257302
100.250692408952
100.250629248546
100.250757218065
100.250689529152
100.25083678662
100.251279601945
100.251293652282
100.251184685816
100.251231614766
100.251118218834
100.251160726578
100.251159292305
100.251159304204
100.251160336981
100.250727982423
100.250658088778
100.25079172543
100.250714160524
100.250842091666
100.251294073709
100.251280195863
100.251149279012
100.251182812995
100.251057864726
100.251090715782
100.251086107976
100.251085942494
100.251090406134
100.25105664254
100.251182089264
100.251147953911
100.250890464211
100.250954043715
100.250973263808
100.250942702099
100.251022182969
100.250973953976
100.250996010732
100.250986770301
100.250986708316
100.250995437799
100.250973973853
100.251118641949
100.251231465121
100.251185613841
100.250942844022
100.250973421671
100.25095458992
100.250891383234
100.25094985368
100.250877255143
100.250885626974
100.250868337893
100.250868082107
100.250885004306
100.250875425097
100.250948686591
100.24990954723
100.249863139655
100.249930706564
100.249960101679
100.249945794797
100.25002577821
100.250012241615
100.250034186806
100.250047337425
100.250047140083
100.250033423401
100.250011548823
100.250024440575
100.251021627356
100.25118390954
100.25013539186
100.249945757237
100.249959929714
100.249931182441
100.249864007321
100.249911922683
100.249858136175
100.249857776564
100.249860856401
100.249860234035
100.24985653712
100.249855947777
100.248592188054
100.248643950498
100.248629129079
100.24873576936
100.248781773331
100.248763011163
100.248836091456
100.248834255384
100.248847578036
100.248884640952
100.248884178359
100.248845613774
100.248832963214
100.248834243436
100.248761920788
100.248780808125
100.24873606617
100.248630162829
100.248649299469
100.248594440796
100.248571181635
100.248589492447
100.248588329735
100.248569251856
100.247153406115
100.247229987718
100.247300846025
100.247289120592
100.247463159009
100.247532339776
100.247506489355
100.24760841075
100.247612906869
100.247590225804
100.247663371587
100.247662620432
100.247586312228
100.247609873521
100.247604875902
100.247503582659
100.247529723304
100.247462524206
100.247290130182
100.24730763114
100.247234713789
100.247156896732
100.247194687572
100.247192359852
100.245446520444
100.245324554951
100.245506846608
100.245612640155
100.245555338567
100.245883228381
100.2459877915
100.2459122491
100.246101055877
100.246110649826
100.24599900817
100.246173141624
100.246172032113
100.245992277924
100.246103317379
100.246093873849
100.245906242259
100.245982176468
100.245880169517
100.245557185936
100.245620751369
100.245515041515
100.245329949638
100.245451039564
100.242914809828
100.242905140369
100.242528604291
100.242929416005
100.24309308013
100.242920983058
100.243598434622
100.24376409005
100.243493013642
100.243849533896
100.243867835058
100.24356058732
100.2440090999
100.244006270177
100.243548530583
100.243853519399
100.243835959085
100.24348041404
100.24375473911
100.243591116115
100.242927925709
100.243101981976
100.24294847163
100.242538913105
100.237252244899
100.238426815263
100.238405094322
100.237216988089
100.238239841879
100.238448715173
100.237958704583
100.239571540282
100.239854533594
100.238857102652
100.23969451618
100.239719522576
100.238899197977
100.240137960498
100.240132841761
100.238877066069
100.239692048038
100.23966872175
100.238831548409
100.239838979784
100.239549031867
100.237942641324
100.238479578717
100.23827234373
100.231236164349
100.229052093367
100.231839403669
100.231799204151
100.228962313892
100.23116555718
100.231477320821
100.230316566752
100.233734543098
100.234195930772
100.231715485616
100.233535857558
100.233547618781
100.23162331143
100.234413770559
100.234403162251
100.231590537669
100.233498145394
100.233487955107
100.231666004622
100.234171370328
100.23365808409
100.23022691771
100.231546469844
100.240048253469
100.239635263486
100.237507507699
100.239724772613
100.239658582867
100.237355036734
100.239500549014
100.23988362503
100.238883973968
100.242173868826
100.243428900087
100.241683565302
100.243107767593
100.243051516311
100.241128413402
100.243289429405
100.243267480395
100.241073054161
100.242961639653
100.24301685342
100.241609381354
100.243434416902
100.24245191657
100.239296137638
100.275805347805
100.269812046119
100.269495687408
100.273809555623
100.269586792561
100.269582975497
100.273713091495
100.269351281632
100.26962973463
100.275604531505
100.272881679363
100.274617258646
100.279765584575
100.273867289814
100.274003163649
100.278664496364
100.274065043994
100.274034074939
100.278545106936
100.273878991367
100.273706558476
100.279590437915
100.274584233644
100.272998298727
100.311311060435
100.32726844099
100.31509768365
100.324181787754
100.306810150432
100.322682862335
100.312197808238
100.323653961938
100.306305496296
100.306312925909
100.323615427372
100.312084881551
100.322377254961
100.323853458963
100.31494768353
100.327202742718
100.345600303306
100.347803198562
100.331504359613
100.313868702183
100.311311037095
100.358461570778
100.387519594078
100.375477308288
100.378942141268
100.390046685324
100.378233073728
100.366016396372
100.320763095562
100.331460695212
100.328983912441
100.312640763717
100.36740417687
100.388786544432
100.370863875923
100.36850462028
100.374020408109
100.38132212499
100.360165958616
100.317545036905
100.328826239509
100.344242726312
100.311270133426
100.31122762087
100.328736105988
100.31738972991
100.32870398559
100.312388703501
100.331071312465
100.3204518503
100.331228835806
100.313690049495
100.347647088788
100.345622262277
100.375549159141
100.381754164428
100.358824600879
100.370579818949
100.362787897844
100.362227250728
100.368536646525
100.355095525334
100.377820357781
100.368379735294
100.368353670206
100.377678787438
100.368265007794
100.361854205845
100.362389926813
100.370214867491
100.381515479445
100.398357136961
100.402267719949
100.408922918055
100.409767450678
100.407383463199
100.399791502141
100.395682521758
100.410714912211
100.415569854068
100.4143959362
100.415102044544
100.415604598568
100.415257104861
100.416171963584
100.406774687862
100.410980847233
100.406476402372
100.398186208321
100.417571286185
100.416350247866
100.416934049102
100.412795233578
100.412926771888
100.411324521412
100.402723347111
100.39404310173
100.406054330582
100.412045947004
100.41331471827
100.415821491567
100.416257804071
100.416157150866
100.416639069251
100.416800025329
100.416715649779
100.416694750686
100.416719737205
100.416725350233
100.416740357523
100.416664534337
100.416434509897
100.416202253235
100.416147382554
100.416286047487
100.416564763025
100.416752973191
100.417459197047
100.418781033566
100.423206174874
100.430136677977
100.446535600647
100.440679945984
100.396454131683
100.354951312461
100.31064511583
100.286687152212
100.301454163096
100.302121608178
100.300042556683
100.299848371122
100.300756352043
100.30182515503
100.30296376392
100.304307660048
100.305803253737
100.307240572278
100.308409097911
100.309196286582
100.309560733799
100.308901230929
100.308070967549
100.307077080904
100.305876955511
100.304377531016
100.302603565974
100.300764300046
100.299098691024
100.297781553052
100.296820952696
100.29617721301
100.295732257377
100.295402951819
100.295139291785
100.294927592355
100.294802958614
100.294831916346
100.295126207054
100.295761280601
100.296879757327
100.298549736109
100.300303691323
100.301003806429
100.301130356978
100.301120356216
100.301148916718
100.301140116761
100.301153563404
100.301187995118
100.301153976719
100.301137840158
100.301077533391
100.300930913706
100.300740670683
100.300789464753
100.300890701393
100.301068636658
100.301058710696
100.300968609776
100.301086449416
100.301139811204
100.301159927273
100.301152020246
100.301193549858
100.301204211972
100.301141722342
100.30116499876
100.30115559508
100.301133155707
100.301142159489
100.300992605811
100.30068969998
100.301094963834
100.301157058078
100.301147708618
100.301171104149
100.301153253456
100.301208035648
100.301166570427
100.30116049595
100.301148173011
100.301106280677
100.301154822402
100.301066643263
100.301145755964
100.301245251132
100.301244326777
100.301233766451
100.30116199708
100.301169148106
100.301185347065
100.301215589384
100.301173188162
100.301193731488
100.301168607013
100.301187880422
100.301065985968
100.300967067505
100.301214970247
100.301225555796
100.301209016772
100.301219852027
100.301200541957
100.301225100585
100.301218216483
100.30121003244
100.301224236663
100.301234593233
100.301304750893
100.301329394723
100.301286732233
100.301202923851
100.301036248848
100.301269893291
100.301318930708
100.301467684728
100.301595788016
100.301555099183
100.301394474275
100.30138388953
100.301354422345
100.301261264501
100.301287224515
100.301260808392
100.301230777087
100.301239119818
100.30124024837
100.301258705857
100.301230966109
100.3012685477
100.301012269755
100.300696954865
100.301151751046
100.301264352165
100.30127032595
100.301283009299
100.3012946992
100.301282390532
100.301297252316
100.301316845201
100.3013341314
100.301354233399
100.301309768791
100.301415035673
100.301464748474
100.30160411358
100.301572024496
100.301629306899
100.301575032904
100.30153463634
100.301436488714
100.301435699587
100.301388418149
100.301387613207
100.301343772021
100.301301940047
100.301332834071
100.301338060714
100.30131183778
100.301331077634
100.301126815829
100.301115202903
100.301327602349
100.301388831053
100.301368049561
100.301381350919
100.301373137896
100.301420365122
100.301449635965
100.301471153258
100.301482539903
100.301632615753
100.30173152829
100.301804441562
100.301828261358
100.301711772041
100.301895771548
100.301908801687
100.302028871197
100.302122064272
100.302055156486
100.301924789894
100.301790491709
100.301671011922
100.301511739624
100.301512436614
100.301540024838
100.301486409157
100.301532801825
100.301448230587
100.301423376121
100.301457857885
100.30129946006
100.301395175287
100.30151065508
100.301527248618
100.301478374293
100.301542106756
100.301545414008
100.301565311101
100.301536362577
100.30159538416
100.301572032003
100.301751083318
100.301889088174
100.302058700056
100.302086270186
100.30210061384
100.301937193533
100.301890748847
100.301702208245
100.3016649705
100.301591272624
100.301605274448
100.301580676836
100.301601173974
100.301620489921
100.301578812352
100.301546148516
100.301615101615
100.301353753182
100.301473468117
100.301576241033
100.301646696525
100.301605888097
100.301640810056
100.301658079447
100.301700202753
100.301662979593
100.301730443283
100.301689009022
100.301759657905
100.302042745476
100.302228257003
100.302346062472
100.302348428467
100.302440251431
100.302516465097
100.302459075661
100.302294192992
100.302100501233
100.301863583608
100.301824897832
100.30171628765
100.301709702268
100.301761883541
100.301688476603
100.301711171705
100.301767807032
100.301704597881
100.301760698221
100.301701639343
100.301517227533
100.301719145035
100.301715114585
100.30174586695
100.301807208684
100.301767744125
100.301891621354
100.301810187635
100.301909872841
100.301879276153
100.301929321844
100.302051216327
100.302258987828
100.302456690139
100.302478039539
100.302446554595
100.30226662968
100.302338796736
100.302539290409
100.302689889428
100.302623690547
100.302744681445
100.302634135579
100.302654373694
100.30264504767
100.302444759692
100.302203980436
100.302035287835
100.301975688058
100.301883870528
100.30186505961
100.301913634902
100.301851700426
100.301863163151
100.301874077547
100.301850645271
100.301817029862
100.30185489949
100.30184316487
100.30152665048
100.301874183925
100.301767471026
100.301693124343
100.301903878989
100.301862747403
100.301900719011
100.301934810721
100.301902631437
100.301960592001
100.301949418923
100.302099560854
100.302209354042
100.302240309453
100.302529069247
100.302740102288
100.302931232529
100.302866318582
100.30300193854
100.302933132099
100.302938876488
100.302908002706
100.302669652012
100.302399965924
100.302288344448
100.302109751551
100.302086246049
100.302105929037
100.301992729135
100.302053673757
100.301962531061
100.30192334912
100.301970164674
100.301894231139
100.301895817348
100.301989352233
100.301613384552
100.300818504253
100.301565240672
100.300967452194
100.300104551108
100.301034401172
100.300382874261
100.299559620505
100.298605611883
100.300019449589
100.299328909537
100.297637465128
100.296238254921
100.295334400104
100.294859742071
100.294709936562
100.29475552556
100.294921517542
100.295163184131
100.295479857401
100.295906047194
100.296515073227
100.297406534576
100.298621588158
100.30016700204
100.301888627062
100.303576661224
100.305046886082
100.306252197175
100.307261845912
100.308119980386
100.308815783311
100.309371384398
100.310078806087
100.310574726455
100.310086993693
100.309452498826
100.308636613217
100.307633639059
100.306410608553
100.30488186685
100.303067548857
100.301183638124
100.299458617232
100.298071351219
100.297052476139
100.29637501803
100.295915442455
100.295584455009
100.295323392472
100.295104208075
100.294946865376
100.294909099255
100.295083278413
100.29553992787
100.296400221288
100.297856235916
100.299685939111
100.300861795293
100.301154095641
100.301131951113
100.301153292037
100.301164519457
100.301163803429
100.30119266735
100.30116798285
100.301167411205
100.301094432574
100.300917250716
100.300654050435
100.300710177941
100.30039045835
100.299924404938
100.299218864466
100.299457697419
100.299752973079
100.3002500699
100.300231206031
100.300022474611
100.300452634134
100.300550781063
100.300703403104
100.30040683169
100.300635912019
100.300811697986
100.300453420945
100.300002864425
100.300395010655
100.300647978095
100.300961560549
100.301345643254
100.301250240119
100.30102202235
100.300744073185
100.300689178529
100.30084935431
100.301050055832
100.301086426422
100.301157949727
100.301086471566
100.301249300875
100.301205857249
100.301183985391
100.301132478719
100.301101975365
100.301082446974
100.301082564829
100.301095438423
100.301120969162
100.301146681611
100.301149947205
100.301157745471
100.301185801067
100.30115895626
100.301147973509
100.301079084623
100.3009236579
100.300850614447
100.301012595025
100.301140671249
100.301154365208
100.301190222284
100.301191131635
100.301213549969
100.301164539703
100.301225982814
100.301184179306
100.3011985056
100.301129147331
100.300969643741
100.300676333074
100.300279122028
100.300603385709
100.300302844103
100.299852457988
100.299081785356
100.298089708998
100.296979379596
100.295366988852
100.296778653417
100.297154681801
100.29771079504
100.298261604158
100.298677334198
100.299030371069
100.299722263943
100.299759043087
100.299511139869
100.299018494665
100.298574746246
100.298188515724
100.297953165198
100.298830904744
100.299340144016
100.29997489311
100.300206564825
100.300793060194
100.301032802443
100.301166974271
100.301176626823
100.301112475735
100.301122410367
100.301137118522
100.301158404825
100.301190409199
100.301242739061
100.301185741172
100.301293519517
100.301260040229
100.301314788366
100.301255559755
100.301124430675
100.300831100715
100.300432288459
100.299779912113
100.299035436299
100.29898996672
100.297938148722
100.296760165592
100.294989273433
100.292941852576
100.29014339637
100.291117396221
100.292449369313
100.293547288094
100.294494090449
100.295885906523
100.296020293959
100.295291413362
100.294623305507
100.293577334696
100.293125935527
100.294968011176
100.296283322299
100.296637676997
100.297988320839
100.299562410722
100.300295957347
100.300612632002
100.300760010448
100.3011518516
100.301164379391
100.301178626126
100.30119448762
100.301215882404
100.301277319413
100.301202499823
100.301363087285
100.301336616501
100.301410302125
100.301368398752
100.301240051531
100.300934558901
100.300548559941
100.299806894857
100.299090207427
100.297920922495
100.296778982349
100.294715606985
100.294750873754
100.292469934533
100.289347483544
100.285414217131
100.280259779934
100.260599430905
100.27064351798
100.281403763449
100.282499595907
100.286753883357
100.288069001308
100.283227190715
100.286951035247
100.289343049046
100.291183933011
100.292838597699
100.293825606289
100.295022952519
100.295104478813
100.294306415449
100.292815272872
100.291376780943
100.289914514719
100.289654250983
100.292053705427
100.294139582547
100.295090671577
100.297056865383
100.298257724154
100.300197501007
100.300676356254
100.300800258781
100.300903257351
100.301128585975
100.301097331
100.301094139829
100.301076678098
100.30106616011
100.301055969639
100.301162580573
100.301200758939
100.301197797726
100.301213086091
100.301274695186
100.301199703799
100.301361275054
100.301336273256
100.301414035047
100.301372189803
100.30126201065
100.300926479574
100.300584572321
100.299783409993
100.299092350665
100.297916750021
100.296759736613
100.294692875488
100.292208042289
100.288982540677
100.288938977777
100.284490816073
100.279143928636
100.254628321153
100.225800674192
100.165277600912
100.1835142599
100.189381971554
100.193063270255
100.192600468777
100.199313236173
100.196623757881
100.193041037719
100.198434862607
100.202980688902
100.201065442487
100.196677382929
100.205386450851
100.200921957406
100.201325337527
100.208606134609
100.202155173975
100.201139308729
100.209115981727
100.204708180944
100.198242550179
100.207334969679
100.203946958137
100.196924977705
100.205601436393
100.202497825173
100.194965398002
100.20568582152
100.207066220386
100.204522358563
100.203803324514
100.201837367574
100.200327971142
100.199857402076
100.199986226723
100.199935148382
100.200307439086
100.200597306101
100.200608700793
100.200265194694
100.200485927654
100.200644772352
100.200719393241
100.200513908246
100.200367772774
100.200768231372
100.200466284357
100.200317008695
100.200255666989
100.20049748829
100.200598436912
100.199886624421
100.1998925779
100.200558284155
100.200466739731
100.200218206907
100.200328998466
100.200470843659
100.200773939856
100.200366285544
100.200513765185
100.200719958694
100.200645596533
100.200487004024
100.200266915911
100.200610036031
100.200599881215
100.200309274304
100.199935081298
100.199983307435
100.199857277795
100.20033184182
100.201302265975
100.202319231824
100.202332959511
100.201294399992
100.201775099048
100.20270047466
100.202719180221
100.201792035602
100.201849646425
100.201687432061
100.201274745078
100.20187530115
100.202075205231
100.200736973506
100.201240623576
100.200980981467
100.201149163924
100.201597360932
100.200687453689
100.201333794248
100.201867731015
100.20198893662
100.20257849215
100.200749115796
100.201729222922
100.201129943492
100.201034078626
100.200599269216
100.201172593516
100.203001602739
100.201658961375
100.200363972352
100.201593910321
100.201579551367
100.200344212966
100.201155167611
100.200597299158
100.201026385091
100.201137092619
100.201727712417
100.200743606846
100.202577780305
100.201981707243
100.201859286795
100.201329308374
100.200680966188
100.201594083207
100.201146733779
100.200976567593
100.201237310349
100.200730348467
100.202076101555
100.201875907521
100.201274009557
100.201680228222
100.20366535364
100.203111380576
100.203943582155
100.201491813534
100.200076917879
100.203921710653
100.20312494675
100.202556550756
100.203214702342
100.201981703266
100.202868689524
100.200228364641
100.205923454274
100.205182417457
100.205520348774
100.202005608428
100.20117391695
100.201166656388
100.202000963458
100.203802861028
100.203676714197
100.203120613222
100.203222976643
100.202564200858
100.203126041873
100.202968687809
100.201068258782
100.202004439282
100.203175607669
100.204180633192
100.202371520208
100.20269696175
100.203500101807
100.204503742784
100.202051518356
100.201487493303
100.202003958296
100.202083913424
100.202078753551
100.201559116799
100.201859398397
100.202622798323
100.202618709768
100.201845569762
100.201543714356
100.202074262105
100.202001811417
100.20204395341
100.204510827884
100.203492905437
100.202690948678
100.20235972834
100.204191473624
100.203190946854
100.202011859734
100.201066854006
100.202983591017
100.202186313901
100.200980163961
100.201729786109
100.201533556193
100.202511509016
100.200968094728
100.200577016037
100.202813600021
100.203132753694
100.203265963801
100.202938114889
100.203988064663
100.202176553367
100.201735778083
100.203973594716
100.205028281757
100.20503521579
100.203945173539
100.20477787242
100.201344186833
100.202429330072
100.204465141263
100.203698630011
100.205325737687
100.204505060848
100.205450978994
100.204613467899
100.201165843343
100.202058884489
100.20142923489
100.199481008764
100.19306248535
100.193720504717
100.187810004865
100.191335594155
100.178628025452
100.172999348304
100.176797911725
100.182392369617
100.162892111092
100.236109833939
100.25839835338
100.222416518829
100.250671097138
100.270033484071
100.278059230831
100.283723770828
100.283637017452
100.278758088951
100.271821040518
100.279598269731
100.283625070914
100.286430794291
100.288733730702
100.286833619883
100.289972610386
100.291554790116
100.292999288733
100.29399447493
100.293873322853
100.292369466969
100.290990180217
100.290702830234
100.292124710278
100.293402799735
100.294087427489
100.294958634789
100.293082029774
100.294573604942
100.293354112968
100.292567510553
100.292289430861
100.292134543135
100.29262945877
100.2917561794
100.291716394166
100.29209821328
100.29285221089
100.291043287549
100.293804772392
100.294245515841
100.294839337265
100.295704853346
100.297450110182
100.296726396828
100.295758050247
100.294995665297
100.294068434151
100.293134747487
100.292319112228
100.291194005283
100.293358335464
100.292312608897
100.291923267972
100.292383397876
100.291748596708
100.292514474326
100.291869037575
100.295408985433
100.296191983363
100.296981532535
100.296819912005
100.296596245065
100.296788861943
100.298669045208
100.300622304314
100.299336005488
100.298667011969
100.299196370655
100.29503526897
100.294527897351
100.295679797759
100.297413950147
100.296609460279
100.299245440033
100.297321073273
100.297703638915
100.298196564073
100.297535751243
100.296823934706
100.296118339479
100.295916920215
100.296364313451
100.295572174786
100.294546045182
100.293567972332
100.292586127059
100.292887736486
100.291826340971
100.290811123669
100.291814792157
100.290478084948
100.290726280164
100.290962571724
100.292004668147
100.293767674331
100.293600106016
100.292167018789
100.292937289807
100.292314386038
100.294855283506
100.294040436649
100.293820808426
100.294208281957
100.295169935605
100.297200230681
100.294938783899
100.296838582885
100.298121780682
100.30024161531
100.300866168841
100.301732259856
100.300752289179
100.300169276927
100.300144085926
100.301573291836
100.301096308326
100.30003525539
100.300143201222
100.297870518014
100.299330434288
100.298166996508
100.297203075882
100.298742563089
100.298098334525
100.298489675778
100.298052839338
100.298160392665
100.297821332874
100.299785855033
100.300311919767
100.301214250568
100.301714105742
100.301808802121
100.301866392203
100.301633936713
100.301659016554
100.301140889344
100.300761635438
100.300138970068
100.299224726466
100.298172188697
100.296975401301
100.296136200105
100.295658506126
100.295540103865
100.296196724084
100.297479752183
100.299222061675
100.300685554166
100.300626538048
100.300624398967
100.301160585102
100.301156572116
100.301169331852
100.301185231467
100.301235461441
100.301179586309
100.301292628685
100.301259546894
100.301320679949
100.301260009937
100.301148582639
100.300823478351
100.300476818282
100.299754270346
100.299031453703
100.297851599254
100.296685506589
100.294710070696
100.292429000192
100.289383149172
100.285505142085
100.280503774086
100.260934947222
100.254950587994
100.226096291962
100.164861636716
100.18334990749
100.189281805494
100.192989853134
100.192567640218
100.199159738023
100.201013136281
100.196699564
100.205475978054
100.200910140922
100.201347691536
100.208587859659
100.20217548842
100.201155742328
100.209113890815
100.204720191181
100.19827357902
100.207315782795
100.203964190971
100.196935386839
100.205603194801
100.202515604621
100.194971802695
100.205919560072
100.205170141352
100.205574327611
100.205660479683
100.204550655654
100.207101690271
100.201483181121
100.203949474206
100.201939131532
100.203921196655
100.200078257372
100.200981014112
100.202181534893
100.203270691892
100.203970197214
100.203129740003
100.202435395149
100.201094052298
100.201427731507