/*--------------------------------*- C++ -*----------------------------------*\
| =========                 |                                                 |
| \\      /  F ield         | OpenFOAM: The Open Source CFD Toolbox           |
|  \\    /   O peration     | Version:  v1612+                                |
|   \\  /    A nd           | Web:      www.OpenFOAM.com                      |
|    \\/     M anipulation  |                                                 |
\*---------------------------------------------------------------------------*/
FoamFile
{
    version     2.0;
    format      ascii;
    class       volScalarField;
    location    "0.1";
    object      p;
}
// * * * * * * * * * * * * * * * * * * * * * * * * * * * * * * * * * * * * * //

dimensions      [0 2 -2 0 0 0 0];

internalField   nonuniform List<scalar> 
87341
(
100.096762890874
100.098775093314
100.095169216689
100.099681054377
100.106697768925
100.106933901875
100.104969187659
100.105569797293
100.105777408605
100.106100591882
100.106269697103
100.106001493716
100.107782171008
100.107328054638
100.109561033413
100.109609994953
100.107121667945
100.103681667295
100.101177104313
100.100843306339
100.10071450076
100.102143082894
100.099948615866
100.101695634618
100.104010224838
100.108161589935
100.102780660541
100.101737067086
100.100979517989
100.100781151221
100.100659435663
100.101081849751
100.101672191662
100.102666055782
100.107909221673
100.103850538014
100.101475918997
100.099654378572
100.101786422474
100.10033051319
100.100515529895
100.100855375148
100.103385740962
100.106817915363
100.109170977162
100.10901934741
100.102268792319
100.101344086236
100.098484088409
100.09858676104
100.098921939978
100.098768070799
100.098707859518
100.098502947581
100.096148191997
100.099550729814
100.102991034419
100.10144598507
100.09818276554
100.097163715226
100.096453355025
100.097133939493
100.097079189531
100.09630692247
100.097223684947
100.098256330159
100.101595662316
100.103202406967
100.099801913802
100.096393555481
100.098831342239
100.099045584929
100.099046302081
100.099180453998
100.098740285556
100.098638434244
100.101648725928
100.102675589186
100.100262405081
100.103458171438
100.106539266249
100.10805765046
100.105914131219
100.105676651435
100.106894352537
100.105054784932
100.10258597965
100.098330790779
100.103793915859
100.092274837902
100.081075895366
100.087083220674
100.088293186065
100.098412306338
100.093246096356
100.094294148666
100.096887461006
100.095867960533
100.095345575615
100.09548805376
100.094789242594
100.099157813566
100.099731598012
100.095570607428
100.095991223332
100.093212453483
100.092068379652
100.093060955145
100.093079457737
100.092139317382
100.093262103334
100.096007770115
100.095711428518
100.099900076714
100.099439142212
100.094960074899
100.095861432018
100.095691420149
100.096154007996
100.097169693292
100.094466689535
100.093332392546
100.098859475523
100.099161429757
100.095822654407
100.099531165856
100.105926950246
100.110916407315
100.103868053316
100.103690360109
100.108507331564
100.123847035188
100.093317354107
100.093884125732
100.078499267057
100.05167610322
100.052566577192
100.048304053772
100.048798185843
100.05494618253
100.085185558897
100.09657920125
100.093367784331
100.093052952188
100.097724147546
100.104364289533
100.086386697028
100.086976106425
100.088307736073
100.097226051187
100.092429764551
100.092427620166
100.097194924958
100.088349411617
100.087048166406
100.086511359003
100.084968141699
100.085451486129
100.088752377336
100.087002529516
100.04710818344
100.049183143583
100.050415705297
100.050185379533
100.049228010182
100.049269576017
100.05140118091
100.051792969851
100.055448415638
100.084796824771
100.079946294112
100.063602128514
100.057885859742
100.057728485231
100.054840761173
100.055790797056
100.05025905856
100.05043225858
100.052786384294
100.056497896654
100.056507489282
100.05280246273
100.050427015484
100.055584891758
100.05468187069
100.048363826454
100.049241246318
100.055637088781
100.056064417422
100.05518976979
100.05487804738
100.055795769293
100.055648120988
100.054776147573
100.055881772786
100.055961775463
100.05662846344
100.056794605772
100.056153629555
100.051434441162
100.052237715355
100.052229162636
100.051483601921
100.050419811271
100.051544110336
100.051163504273
100.054634874607
100.055783826507
100.056544809061
100.056853847603
100.05617968918
100.056107720796
100.0567974518
100.056685913431
100.054546317327
100.054302759756
100.054415877449
100.054599962724
100.054695929173
100.054574486395
100.056375784341
100.055490545152
100.055472235275
100.056065497635
100.055549057244
100.054626789284
100.055777518029
100.054233593003
100.054124796446
100.0543237393
100.054424026529
100.054234270125
100.054274929915
100.054540757275
100.052112084371
100.052170787937
100.052100081484
100.052210167187
100.052278941168
100.052362583179
100.052327175402
100.052298048233
100.054539588913
100.056335773691
100.056640446902
100.056437271279
100.054412981335
100.052089650511
100.052009239242
100.05189342789
100.051935016617
100.051958706761
100.051919030409
100.051983438561
100.050000247124
100.050170970277
100.050217866828
100.050110235038
100.050222998818
100.05036706989
100.050496020516
100.050464761828
100.050432302946
100.050391415975
100.052267169151
100.054585218585
100.054997352705
100.052486458043
100.050660580643
100.050172119007
100.050011355446
100.049923200065
100.050038853439
100.050061290306
100.049952439293
100.047931710863
100.047929288272
100.048301971834
100.048327277846
100.04811847785
100.048252382865
100.048604851059
100.048848294099
100.048780721703
100.048748957261
100.048739436381
100.048415280199
100.048036434947
100.047964023985
100.048223125523
100.048245153073
100.045888235756
100.045273496536
100.045211850173
100.04590398967
100.046027605905
100.045614710907
100.045753554185
100.046415549931
100.046850832025
100.046756922347
100.046728567102
100.04674010728
100.046238307969
100.045522747238
100.045472722032
100.04593421162
100.043468081182
100.043312434156
100.041970349135
100.041737861789
100.043224421309
100.04360867637
100.043491513909
100.043714799148
100.044202457171
100.044977925126
100.044546133581
100.044541212705
100.044876930642
100.044048574987
100.043490178626
100.043304231764
100.038505188495
100.032946664733
100.031876379362
100.03472247065
100.034957069255
100.0332912501
100.03379392954
100.038924573681
100.040057243735
100.036850853831
100.039602162446
100.040913679548
100.040936260652
100.039670286287
100.036724317411
100.039833507553
100.061143848729
100.060662622354
100.061925657627
100.064441062846
100.072069655215
100.062090691081
100.061928333886
100.071305925147
100.069067489165
100.061985359491
100.068866156915
100.081048231322
100.079483222549
100.068418160334
100.059693492263
100.05841073304
100.055751492515
100.060481548465
100.062842972838
100.068083136661
100.061796051765
100.054552881829
100.054091871776
100.051219435288
100.046060845852
100.045147973795
100.049302662393
100.052553252105
100.053495639545
100.057075416961
100.070493902955
100.063997125276
100.068216809642
100.061591457138
100.063124469011
100.05730920056
100.068582945715
100.067054598409
100.065825449891
100.070895960937
100.090728715536
100.127563693037
100.171072762355
100.22158260432
100.272048955136
100.3258579793
100.368147428466
100.40064016479
100.438266492912
100.463708788288
100.476148493805
100.485773830043
100.454587666271
100.458655596477
100.46148815916
100.462111173009
100.461116420093
100.459470783762
100.459409291502
100.46740820906
100.465661805658
100.467223723367
100.469787150092
100.470956701159
100.471822441183
100.470187618272
100.469321953246
100.446330450109
100.459183068583
100.473496796039
100.463797111464
100.455379803986
100.444356915605
100.44359667121
100.448685807943
100.442751103551
100.422571684352
100.429997258224
100.44004244789
100.442292781859
100.432579425303
100.433021887362
100.439899157788
100.449049044418
100.446672302775
100.461686842239
100.41376651734
100.425168146452
100.428393433528
100.428308240415
100.42513503791
100.414155339821
100.418567462724
100.419856977439
100.41310819722
100.408091527444
100.413014250924
100.417431358011
100.417452353782
100.412461444593
100.4055983185
100.409853027584
100.418678470824
100.418292690801
100.464687779322
100.462414393952
100.405864047529
100.409101367109
100.407153955437
100.4048054009
100.409907483765
100.398697866034
100.395533557711
100.408112196707
100.408811671311
100.406196672139
100.408470350085
100.406060748734
100.412414313122
100.40640239309
100.400337794576
100.410402844595
100.425613414621
100.451327930819
100.45054619149
100.459965740518
100.459624789629
100.460591421086
100.462092528666
100.465369042632
100.466864223009
100.470343667219
100.466465544103
100.467656537123
100.47009268854
100.472659703225
100.466739605199
100.476518605207
100.460347893991
100.447376488716
100.445960736735
100.459053608175
100.453186003919
100.446093849205
100.442070474145
100.431910771437
100.425399628536
100.445188837663
100.461596016125
100.464247287072
100.465430399179
100.420201048398
100.41866077987
100.417142103551
100.412345278747
100.406391483004
100.411503399603
100.408263327708
100.39962851404
100.406165746413
100.410698753003
100.40534474507
100.408653092328
100.407676045903
100.409745343446
100.40715123588
100.403734555804
100.407255886155
100.405142188473
100.409379871167
100.40362371365
100.398025702724
100.407562156584
100.412297075587
100.421996133112
100.432009698899
100.433753467599
100.428878511396
100.421835894535
100.423093275043
100.456603361444
100.484604598095
100.46905136515
100.489744407739
100.505169538987
100.468619809573
100.44738614532
100.449158780275
100.466643879461
100.466301797084
100.467371142455
100.500852418307
100.492065660704
100.493258220077
100.477084800893
100.483657513821
100.47459588887
100.473834946808
100.478820168791
100.474388589883
100.489148447861
100.471584158298
100.481288407381
100.47782488415
100.478828390898
100.482039193785
100.49105923274
100.50109124343
100.502880744032
100.486456385415
100.484756138885
100.48768444886
100.492315715323
100.483818240557
100.456416386876
100.424582836878
100.424872942838
100.432151472346
100.436280309088
100.43413184888
100.425009224965
100.415568823549
100.406912663918
100.411547348991
100.39684389634
100.392591883049
100.404452095913
100.404849342453
100.414970214812
100.414314851214
100.403051413654
100.393686487395
100.411877070505
100.419411182385
100.416298681088
100.414222603599
100.409623699678
100.453435407748
100.456967785387
100.455860410627
100.414763647165
100.422303835914
100.422273778478
100.419773357666
100.416529373969
100.414328925495
100.425487651324
100.445705707518
100.456376403533
100.454111977521
100.409976475903
100.412697544934
100.395208989887
100.403087046491
100.414343797628
100.414991728412
100.405106104946
100.393709659949
100.392115124576
100.39619459994
100.409607072451
100.409672227578
100.424253598243
100.454080180387
100.487388554603
100.484958913207
100.471672415936
100.474093545864
100.473644270698
100.484597153933
100.48912500067
100.475366933184
100.476207704112
100.469382229892
100.496218475345
100.492984749502
100.495636284261
100.491023314343
100.476138205815
100.476524728969
100.489396522893
100.487179619051
100.482121830886
100.482237586306
100.484608775444
100.482851581216
100.48594937137
100.469098608737
100.475681982631
100.453568261926
100.440055630827
100.438862727015
100.441946173397
100.453914253141
100.435565724346
100.439180426616
100.436598636991
100.433256055698
100.430009390524
100.429685074107
100.461719756743
100.46355637206
100.464874170942
100.465824705112
100.462084731307
100.465562252146
100.465778349803
100.465589784079
100.464801833967
100.464897219011
100.462423184
100.462132074458
100.458045245912
100.458018466142
100.453005311926
100.448604726658
100.438749485561
100.440430737955
100.447753834704
100.439688804472
100.429924768796
100.430517315112
100.431447995463
100.432500584404
100.442217920166
100.448412725667
100.441127305893
100.453385570955
100.45621374846
100.45696940333
100.460891328169
100.463592113182
100.463513720599
100.46307865181
100.463914681815
100.464038292498
100.464531781904
100.464842880177
100.464929094451
100.464994620662
100.46501797455
100.464680693562
100.464282258682
100.464061481947
100.463517438576
100.463144610545
100.462471298182
100.462085523836
100.46123572043
100.460916027211
100.45766247459
100.45601978219
100.454935344565
100.45404566835
100.456240969444
100.455677336493
100.459486057798
100.462827140647
100.46445230729
100.466058344732
100.466838172591
100.465323047378
100.46576772819
100.465685991575
100.465667799614
100.466308579225
100.465997190303
100.465944360775
100.466042014756
100.465869574993
100.465874568513
100.465625887394
100.465882427829
100.466378261898
100.466856088992
100.466552842902
100.467495297443
100.466593957396
100.466558739916
100.467515709688
100.466623587952
100.466295217986
100.464825312324
100.46490041815
100.466347548536
100.46604877822
100.4665047811
100.466419949937
100.466020647936
100.465924305979
100.46649250988
100.466010377443
100.465097293633
100.465528742078
100.465696452394
100.463634552478
100.465092007093
100.465802057105
100.465788455601
100.465194826443
100.465691365106
100.465304538055
100.465979327955
100.466416642359
100.465861168974
100.466003154036
100.466548355129
100.466713779216
100.466751011169
100.4669528098
100.46701362594
100.467025990629
100.466793523837
100.466978036155
100.465960594018
100.465518198927
100.465420215778
100.465309913115
100.465195934761
100.465007255303
100.464531167888
100.463300500784
100.465900537394
100.466323804237
100.466563532677
100.466560409047
100.467225884785
100.466998614679
100.466889809344
100.466723266318
100.466227583103
100.466443250123
100.465971485
100.466939797609
100.465703787895
100.46416320799
100.465936903819
100.465893831792
100.464050469755
100.465413934201
100.466563684501
100.464815460239
100.464610221425
100.461376862663
100.457721953322
100.451970142477
100.459106938776
100.459798368518
100.459864237758
100.459315259337
100.458243192015
100.461944850077
100.464954147616
100.466614719483
100.46492582772
100.466622768238
100.4663803727
100.465984849003
100.466981186301
100.46642563088
100.465590096931
100.466812990865
100.465493222356
100.465645999088
100.466679204784
100.465023212653
100.464841872975
100.462182306341
100.464069980078
100.461676231847
100.460216389513
100.462705053707
100.462861213264
100.464383386542
100.462145476947
100.459949672459
100.454996997817
100.452565409604
100.454490225881
100.454976496714
100.456232200725
100.457795567803
100.460452913237
100.461025754734
100.46220640657
100.462404210614
100.463150674571
100.463366227127
100.463590520902
100.463181682225
100.462827900758
100.46249141891
100.461496537404
100.460668159111
100.459268702832
100.457604574964
100.456973031625
100.455402692373
100.454674625668
100.452915921828
100.455588435587
100.456204818325
100.456519040922
100.458823299401
100.461890817755
100.461193923412
100.459087292771
100.45569824369
100.455329636887
100.45644211663
100.459234458371
100.459376767238
100.45779985049
100.457727401596
100.459927496828
100.463622457418
100.463161800443
100.464114332069
100.46466966831
100.46494759012
100.465489497372
100.4654158593
100.465173652503
100.465304281395
100.463799315218
100.464069690278
100.462064280181
100.462889029101
100.460730056048
100.461729599465
100.459037449951
100.454487560244
100.449906868719
100.452099314911
100.453516198758
100.453699621748
100.45666716041
100.461271113772
100.463181541263
100.463593422907
100.462748898598
100.463560904089
100.463880337041
100.464308660951
100.464730502349
100.464663112729
100.464844745993
100.464911689477
100.464610537678
100.464318851323
100.464140803764
100.463767779865
100.464065898974
100.464203127089
100.464082720557
100.464411594909
100.465827231484
100.46487812108
100.46577181907
100.465834701825
100.463835882207
100.463038677253
100.462490399232
100.462911471303
100.460336547084
100.458411596164
100.454609989243
100.450873775811
100.447819132768
100.449284087675
100.452852767535
100.452827046167
100.454882925322
100.45731658382
100.460652478725
100.463605534408
100.463266380961
100.463282134893
100.464044940697
100.463955939008
100.464330924008
100.464627293511
100.464570971321
100.464699390957
100.464675405829
100.464367744689
100.464086526652
100.463994560162
100.463692170664
100.463472295057
100.463335303473
100.463074361672
100.462891301654
100.462314367941
100.461915856608
100.460935870618
100.460327912587
100.4597356611
100.457947191497
100.456108529709
100.458431910072
100.457990030906
100.458191440963
100.456779754524
100.455044559387
100.450844996873
100.447633036731
100.447522656845
100.453045275603
100.454002925047
100.457074577219
100.457708208667
100.458572691375
100.461232246075
100.461905151165
100.461806813772
100.463199590361
100.463089360686
100.463681611779
100.463115306843
100.459963561592
100.449983857261
100.448113772407
100.446966428589
100.44683724177
100.447729793331
100.449445145941
100.45484049872
100.45039949931
100.443520379995
100.428783436455
100.41295183536
100.436349878416
100.433093826362
100.429870185483
100.429930827955
100.433341258406
100.436809151565
100.429147212183
100.444163851413
100.455630114667
100.450674628841
100.458621479442
100.452707497418
100.450129649059
100.457483842084
100.450523589263
100.449595335039
100.455985510716
100.447420962286
100.4495318308
100.441651350194
100.451173726742
100.442987986559
100.446460694378
100.444150337896
100.44488183342
100.44756590113
100.452355115882
100.457509912438
100.460403899731
100.459142433768
100.459367672324
100.45977651169
100.457305953766
100.457422511768
100.460748350565
100.461246925858
100.45994884419
100.46037930993
100.456428449703
100.453331655195
100.443054710017
100.430358963687
100.417853665855
100.411787752212
100.40952959732
100.42113076785
100.417662387143
100.425892721667
100.421927356161
100.420479108206
100.419075555331
100.419984917701
100.422678129898
100.421854875051
100.427907721772
100.399825816063
100.385776471802
100.385774725777
100.391180529821
100.408996581762
100.408922972178
100.391046625714
100.376516413929
100.376573360405
100.346995449708
100.347055055915
100.348511490556
100.358541819908
100.348751885777
100.33037639351
100.298550102104
100.281602294119
100.318329927924
100.308092593045
100.307932224108
100.318236460613
100.348547265915
100.358570054196
100.348470584566
100.377978614298
100.399917451366
100.399800243591
100.398160276889
100.397204576743
100.394678326942
100.382480359935
100.40794646112
100.387217842864
100.397352956808
100.389408519538
100.391238649825
100.395894785732
100.405590719437
100.43154337796
100.438964467984
100.447909072803
100.45847022974
100.455989953195
100.447179060665
100.43540465306
100.411234901899
100.392226728953
100.359179612569
100.337674365359
100.326797007535
100.322599102992
100.326227635304
100.34641274968
100.337344303669
100.34515830593
100.334511650647
100.338796016146
100.338276352955
100.338107681012
100.343481778524
100.301354654951
100.288974753393
100.298358294722
100.330236754866
100.373849832833
100.403647569403
100.427159008452
100.445040807553
100.45343731513
100.458302812124
100.459694517872
100.460271367216
100.469397946722
100.503758157797
100.485875365923
100.483809615247
100.484868220655
100.482988317096
100.484914048867
100.487918684141
100.50700542244
100.492924415569
100.486160900876
100.48147572693
100.451140643807
100.434923820215
100.43476159376
100.440013494029
100.45733306152
100.445469990268
100.440476706027
100.435615099309
100.426585735636
100.428812772433
100.437572077537
100.439816386636
100.432925151821
100.433750825222
100.443182135931
100.44738490914
100.449073841613
100.460826371647
100.429543771391
100.427014918172
100.423088565563
100.413497228186
100.414125268098
100.426457136008
100.417452134193
100.416954678617
100.409682039601
100.405307191487
100.411724257933
100.416793428238
100.464342192181
100.466811291418
100.465367274728
100.472159831155
100.466647245604
100.471774496056
100.46889480079
100.470626634681
100.469854468665
100.471274117236
100.469536663575
100.469101718017
100.462689118363
100.464020115352
100.460473142868
100.453775867969
100.455123512466
100.453197713744
100.450676535456
100.452950796345
100.451723298753
100.451288738661
100.45230677772
100.449537131986
100.451581332824
100.452340903209
100.453421172505
100.453953444766
100.453871098485
100.453295919795
100.452117350587
100.451212322623
100.459238195947
100.46287213599
100.465461750929
100.467281127104
100.465363441876
100.463103394025
100.459531950986
100.459296460674
100.459503354276
100.46092115998
100.463535437893
100.465653232334
100.46693759333
100.464918334284
100.463535832521
100.461361069476
100.459578383995
100.459234337606
100.45880319404
100.458843253465
100.459327777844
100.459684654326
100.461022521009
100.461431030532
100.461242317202
100.460922558636
100.46088050814
100.46117578816
100.463681549393
100.463651297036
100.463675302201
100.463720322057
100.463596208811
100.463619763252
100.463412203623
100.459604251511
100.45944114752
100.459765016458
100.45951047691
100.459618230887
100.45702180106
100.458316237568
100.459942908699
100.459924506527
100.462874039093
100.462899395782
100.463112257717
100.46330370818
100.463482193259
100.466144687891
100.466025896211
100.465728003377
100.464968813344
100.465161468905
100.465047778574
100.465028813296
100.465126174004
100.466892878834
100.466890908383
100.466906789011
100.466932512237
100.467006287241
100.467848141089
100.46780396238
100.467772739116
100.467756175039
100.467767299363
100.46777846128
100.467782742907
100.467821952176
100.46760535154
100.468174082157
100.468134477
100.468414422164
100.468821250973
100.468202484739
100.468474064611
100.468465796857
100.468478248964
100.46850385646
100.46825958523
100.468471663467
100.468208682152
100.467858823505
100.467942495013
100.467749508769
100.467439940518
100.465534612306
100.465652291313
100.466168618556
100.465260398692
100.465733197418
100.462941735502
100.463354465271
100.459848889415
100.459980330037
100.459480619866
100.460616781947
100.458838830313
100.460670316729
100.460086213356
100.460374922245
100.461325573037
100.459510046385
100.458827244378
100.4575881639
100.461193496505
100.462682720204
100.461382923858
100.460785672143
100.461456202611
100.464023381881
100.463836399421
100.463749228485
100.463559066454
100.463247538688
100.463177670768
100.463236960238
100.463468746102
100.46569163433
100.466030748964
100.468290776791
100.4675187164
100.46768535526
100.467953122418
100.467614870811
100.467977259375
100.468455833128
100.4684333486
100.469162680169
100.469160642168
100.469350421151
100.469375102273
100.469369541843
100.469326510361
100.469122873182
100.469102763539
100.468782769921
100.468909295462
100.469284166675
100.469338584031
100.469460906954
100.469345248885
100.469422898313
100.469552300784
100.469739809989
100.469745678756
100.469575902628
100.469460309296
100.469404259686
100.469421661068
100.469382578342
100.468868349505
100.469021633307
100.468878402929
100.468288169093
100.468521414486
100.468437114155
100.468000017366
100.46809897086
100.468234680917
100.467584392005
100.467535755914
100.465886895479
100.465886718329
100.465934599057
100.466105578952
100.466135967372
100.466228771519
100.465967364734
100.466489784889
100.463807889833
100.464196546464
100.464742338466
100.465318839164
100.462943126052
100.461592320405
100.4607950308
100.460611739672
100.462798014295
100.463232165283
100.463423352984
100.465877509047
100.466137054945
100.466190337991
100.466640798636
100.463773593217
100.463285383729
100.456982644543
100.447859105753
100.443655412534
100.443739239842
100.442235562047
100.439900389713
100.440551938823
100.439111188358
100.43864740715
100.438906252421
100.436870497661
100.439581586984
100.440023085727
100.441305422386
100.443109165666
100.442964703173
100.441058956059
100.439776179321
100.43913511365
100.436345010673
100.438224410052
100.437936096376
100.450600433467
100.458988153339
100.462804569629
100.4655219081
100.46722647091
100.46533738433
100.46306120326
100.459507769332
100.451722808662
100.449045502986
100.456635948204
100.457883753353
100.459518557538
100.462610595593
100.465446854947
100.467245552974
100.464986962563
100.462553162129
100.459565768365
100.459282236187
100.462613397068
100.465937266299
100.467741317303
100.46744587943
100.468331661202
100.468132138227
100.468749269119
100.467839258316
100.467444039723
100.467074207321
100.465135626149
100.462029180271
100.458432145602
100.451478011377
100.436524720432
100.424544287754
100.431117628335
100.430481143233
100.428134302283
100.430680493959
100.430294010524
100.430592494022
100.433022518693
100.439855373221
100.452188318415
100.459786443098
100.463231919667
100.465681168316
100.46731488958
100.465652427491
100.463043159647
100.459502796887
100.450973008577
100.43836324581
100.436078102332
100.425073524002
100.425886469451
100.434820447945
100.437316835483
100.43343957321
100.431028969772
100.439112969462
100.449869856442
100.458160101945
100.460165322756
100.463220268803
100.465991946059
100.467188551548
100.467835041952
100.467660839946
100.467402710497
100.465756631512
100.465471001921
100.463470606401
100.460868001157
100.458861017626
100.460742209765
100.463300456684
100.463244045769
100.460474275869
100.459669881762
100.45903675121
100.456892582354
100.460565371311
100.462066726538
100.464164541812
100.46686932381
100.468222486541
100.468506582028
100.467760249998
100.466465868656
100.463609306687
100.460774509966
100.461224224871
100.461029566311
100.45305166679
100.45241516565
100.454355015795
100.460969150613
100.462827040542
100.465309026093
100.466882101889
100.468274961416
100.466945557076
100.464746969602
100.462344095428
100.462704244561
100.46338011468
100.460140861163
100.462621347658
100.465569404145
100.467638282898
100.468259609991
100.469160037798
100.46847124536
100.468143994967
100.468567377012
100.469155435107
100.468603759993
100.468429259484
100.46887725616
100.469318459186
100.468814099399
100.468246595656
100.467986723809
100.468735474065
100.469091746465
100.46873497706
100.468613672506
100.467972586466
100.468051693929
100.467487508344
100.467419548748
100.46727262499
100.467890898062
100.468687603319
100.468171913149
100.46761985845
100.467982745841
100.46548646081
100.465520028239
100.462764591636
100.460142982444
100.45826725901
100.460110235855
100.462715283397
100.462131423682
100.458425871524
100.45803974578
100.451584908843
100.44882026034
100.434244450381
100.42330888762
100.42102509892
100.436075409438
100.451060166296
100.451709373983
100.452160630772
100.438110624323
100.435919099182
100.443083585195
100.443003379079
100.453045704104
100.45996874273
100.462182339124
100.465628290811
100.467808200358
100.468809881231
100.469054967128
100.469666455135
100.469362359979
100.469079895767
100.469372726596
100.469577883625
100.469303399823
100.469105914716
100.469260093552
100.469348312651
100.469285933946
100.469255751657
100.46939889358
100.469212671392
100.469291295073
100.469356393309
100.469376475197
100.469387635541
100.469336834404
100.469201456133
100.468776445562
100.468664173007
100.468926729747
100.468468960496
100.466973941487
100.465028302585
100.461989496198
100.459186150908
100.457675573165
100.458591214389
100.447730230246
100.434682158454
100.423603011583
100.418941563523
100.430213626627
100.463498779704
100.497051961756
100.515767110461
100.518372694321
100.51693907106
100.517426255856
100.516255301594
100.522821558981
100.508637456821
100.466872138239
100.42815136819
100.385736914166
100.363009783883
100.378229448126
100.375257670052
100.372475134897
100.372993351758
100.374764348378
100.376262762338
100.377401560994
100.378304231754
100.378928806157
100.379314625021
100.379530967291
100.379633234615
100.379686301377
100.37910702895
100.378495571587
100.377888694885
100.37732499228
100.376837689932
100.376439953027
100.376129030367
100.375886554224
100.375690326559
100.375523510384
100.375371630212
100.375218079339
100.375048502434
100.37485334249
100.374626846902
100.374360746071
100.374089779542
100.373830622665
100.373811274368
100.374125396293
100.374463628823
100.374630255189
100.374678431729
100.374771161829
100.374780123853
100.374887205054
100.37488797747
100.374953542237
100.375012478038
100.374965967568
100.374931295378
100.374935198225
100.374984101104
100.374877693341
100.374955990299
100.374880744061
100.374944102702
100.374890881424
100.374841524351
100.374747788625
100.374727348503
100.374640545502
100.37459015839
100.374438264123
100.374075067704
100.374466167454
100.374566853236
100.374617032576
100.374696859185
100.374721201984
100.374805337389
100.374842784431
100.374908396357
100.374874539334
100.374857055738
100.374563210435
100.374253477506
100.37423760104
100.374445852819
100.374423737558
100.37477137413
100.374841289723
100.374864454962
100.374784906103
100.374749475709
100.374660798295
100.374654295174
100.374538348177
100.374530800187
100.374421872368
100.374285373771
100.373963382841
100.373499759867
100.374032283196
100.374286879455
100.374413284072
100.374489541209
100.374613782177
100.374561849559
100.374712898059
100.374694318546
100.374776424188
100.374825892888
100.374790930036
100.374663846062
100.37448953265
100.374446457208
100.374696781395
100.374568017969
100.37474076442
100.374772010075
100.374747135052
100.374683699491
100.374697028557
100.374567383544
100.374574610856
100.374459749755
100.37439314405
100.3742550092
100.373994580113
100.3734174257
100.374036192591
100.374271913321
100.374378036442
100.374447137836
100.374545336181
100.374559454431
100.37468220943
100.374653559342
100.374688602906
100.374706586739
100.374589913777
100.374592521347
100.374736079688
100.374735814645
100.374703223913