/*--------------------------------*- C++ -*----------------------------------*\
| =========                 |                                                 |
| \\      /  F ield         | OpenFOAM: The Open Source CFD Toolbox           |
|  \\    /   O peration     | Version:  v1612+                                |
|   \\  /    A nd           | Web:      www.OpenFOAM.com                      |
|    \\/     M anipulation  |                                                 |
\*---------------------------------------------------------------------------*/
FoamFile
{
    version     2.0;
    format      ascii;
    class       volScalarField;
    location    "2";
    object      p;
}
// * * * * * * * * * * * * * * * * * * * * * * * * * * * * * * * * * * * * * //

dimensions      [0 2 -2 0 0 0 0];

internalField   nonuniform List<scalar> 
74874
(
100.128977611497
100.131361794896
100.131835165523
100.130424954109
100.135940150621
100.13652654107
100.133368679625
100.134977010955
100.137494034463
100.13756768647
100.1354552192
100.133919120661
100.137202803053
100.136652786551
100.137664162435
100.137847568815
100.137228940532
100.13409023029
100.131181224842
100.130611644656
100.132086059927
100.133403207382
100.131884665973
100.131535014121
100.136976251505
100.137112169631
100.132511480826
100.132777103646
100.13393984975
100.132118533688
100.132256040557
100.133754215482
100.132759005783
100.132458838819
100.137045053386
100.136547235769
100.131445171285
100.131861353381
100.133303372952
100.131724088717
100.130293031949
100.13081848614
100.133725008393
100.136871377147
100.137318913388
100.137076785579
100.130933733091
100.13019337277
100.129799320334
100.12923319777
100.1282204388
100.128225749033
100.127510808507
100.127858469706
100.128125444809
100.128682232229
100.129882983029
100.129371461787
100.127763850894
100.127476531127
100.127209472412
100.126756371945
100.126800727632
100.127338612857
100.12749960674
100.127835291053
100.129388278659
100.129922004136
100.128797797035
100.128280931878
100.128148899949
100.127811302645
100.128473018551
100.128482975143
100.12947127223
100.130088023805
100.130565201331
100.131343601951
100.130887771897
100.132458096768
100.132066573063
100.133209146945
100.133468517334
100.133253384011
100.13268624241
100.132205011288
100.131708215548
100.128552086288
100.12687706236
100.128907991503
100.127869376917
100.124177402805
100.125126349755
100.127738307233
100.12743589966
100.125692447793
100.123934096626
100.125516424212
100.127079132077
100.126429663268
100.125753631052
100.125337601671
100.123517500246
100.122452726851
100.123649427965
100.123593862216
100.122332310542
100.123470568062
100.125450418941
100.12593327284
100.126279737611
100.127287965586
100.126060925289
100.124414251706
100.12605707549
100.127696074658
100.127972866194
100.125302392825
100.124394882067
100.128278503792
100.129332340207
100.127392944169
100.129372101261
100.132933959551
100.133157485702
100.130746224243
100.130510126231
100.124090987205
100.132241447131
100.131834793023
100.126404294223
100.123930152567
100.128568045669
100.128940646716
100.123269806255
100.123503674381
100.126403041811
100.124809708921
100.123637149243
100.121641571347
100.124528348814
100.127104171697
100.123343567582
100.122786693878
100.125025554701
100.121400576276
100.119052763355
100.121237233
100.121202403288
100.118990910638
100.121372975345
100.125136776515
100.123159038947
100.124007263762
100.128069197841
100.12551186448
100.122219895229
100.124053172089
100.125113871329
100.126688543634
100.123713370689
100.123432486637
100.12951589789
100.129038645629
100.124630852104
100.127661117251
100.134452389047
100.135330654241
100.12502641947
100.152161956781
100.150119958377
100.122700571677
100.122563715804
100.12789118346
100.117432235141
100.118965760442
100.1300182554
100.126391585674
100.123539178453
100.123469328561
100.128375319511
100.117948921562
100.119094029159
100.119351976053
100.119104209062
100.125927842044
100.122192129379
100.122156442493
100.125790282661
100.119232782519
100.119501120866
100.119269840888
100.117861674356
100.116312470912
100.119253663231
100.117010416094
100.108371758734
100.110974654888
100.082748681016
100.078860520325
100.079223994643
100.084993650061
100.116220098338
100.110537567582
100.09349394227
100.086504162558
100.080183441915
100.08093776955
100.085914168202
100.082896734218
100.083862480813
100.087159478493
100.087146840648
100.083813951041
100.082880201209
100.085550092596
100.084730642321
100.078525856233
100.077255316567
100.081784055484
100.079826628556
100.079657737402
100.078657488351
100.078682917204
100.084908050681
100.084113393929
100.08442886838
100.084814451168
100.080080345935
100.080653348604
100.082001281566
100.081976772133
100.080635126661
100.079870219657
100.080861318687
100.080086905442
100.078605721306
100.078638483967
100.08543397818
100.084496313753
100.08415842934
100.08492625732
100.086204638728
100.086147970814
100.085529107601
100.085707858319
100.085961675254
100.085994444024
100.085087452767
100.084805314847
100.08479644215
100.084978123806
100.084618567995
100.084388944177
100.084046631685
100.084970675788
100.08608093131
100.086390803769
100.085646463907
100.08554155861
100.083816102591
100.084104422716
100.084085253591
100.083879645769
100.084033445109
100.084032835918
100.084062071752
100.083925619519
100.085643159807
100.08561672936
100.08585984672
100.085781503247
100.08561638176
100.085455647221
100.083750943337
100.083936415749
100.084077303014
100.083792448443
100.081470353349
100.081521998968
100.081634740849
100.081662808446
100.081577562854
100.081694618234
100.081644924822
100.08169464077
100.081646291231
100.081632016439
100.083905518914
100.083978446703
100.08390844484
100.083912025619
100.081587343538
100.081436618295
100.081517595543
100.08153243115
100.079532498599
100.079520801688
100.07957284868
100.07963194276
100.079691068414
100.079616041738
100.079702894488
100.079671408035
100.079720071707
100.079685116385
100.079673408931
100.079694689714
100.081656342373
100.081561222982
100.079606308597
100.079623649468
100.079512304886
100.07958386767
100.077848833996
100.07780754692
100.07775574576
100.077787295221
100.077830356373
100.077908538363
100.077851874928
100.077932555969
100.077911293755
100.077959531889
100.077940838856
100.07793653157
100.077946685475
100.077861982323
100.077876856176
100.077797992909
100.075995821586
100.075997883235
100.075955339549
100.075854263324
100.075871776723
100.075917053873
100.076020561909
100.075990804392
100.076082539858
100.076062326832
100.076132083806
100.076145322859
100.076151869776
100.076148506321
100.076050483078
100.076062644974
100.073984735371
100.073907323116
100.07387518381
100.073822843995
100.073576013508
100.073587383869
100.073734833844
100.073845443841
100.073824474423
100.073943528605
100.073944593284
100.074049622824
100.074103207145
100.074158551764
100.074144679135
100.07403016034
100.07146844809
100.071383994316
100.071266488022
100.071239899073
100.071177981028
100.070581406918
100.070546450027
100.070973632608
100.071075932504
100.071089878792
100.071242589272
100.071311557917
100.071503751505
100.071567277603
100.071647321188
100.071591024816
100.067766938186
100.067590389324
100.067587085701
100.067372160811
100.067175277015
100.067373963371
100.066137875923
100.065993504379
100.066922508248
100.066803037804
100.066964274465
100.067231339577
100.067274073939
100.067637770198
100.067817496715
100.067873603375
100.061801501786
100.06164516368
100.061336554985
100.061457007634
100.061308599142
100.060423346946
100.061305904886
100.058782316382
100.058656540336
100.0606162029
100.059719307677
100.060436016691
100.060706570481
100.060705112666
100.061245648373
100.061632184071
100.039333659167
100.039544676641
100.036283834057
100.035994655279
100.039623198374
100.040200094289
100.035437337602
100.035905561573
100.035822234015
100.035728126379
100.035276470683
100.034174831553
100.039015554489
100.038681326923
100.035431132589
100.035870648984
100.041698560756
100.044505484767
100.044586296386
100.042448322635
100.042231213678
100.043871632242
100.046090500268
100.039876413475
100.026705361034
100.069084678516
100.1047329403
100.104408579738
100.067941863631
100.035143553359
100.035360265602
100.173980091755
100.298496970835
100.223962515617
100.221993631317
100.175176598742
100.159810006848
100.145191719756
100.038861559698
100.045397684397
100.04358919721
100.041610509656
100.150980938528
100.15164074894
100.190435605141
100.129384047704
100.130122020211
100.191812136468
100.152924827018
100.151738201575
100.188113579338
100.12506578633
100.122831661027
100.178950301935
100.145535596061
100.162739190584
100.177765036426
100.29777247541
100.367833238786
100.346188224396
100.342905669448
100.361665735483
100.339975185764
100.293535799022
100.458966289279
100.485206954804
100.492272273089
100.52616580043
100.596323263326
100.600535836894
100.52130143711
100.454318117392
100.387891270871
100.349977181736
100.373973220066
100.372506533897
100.369439229394
100.369532212843
100.370446414159
100.371427001376
100.372694321405
100.374509222814
100.376865097736
100.379608358148
100.382476102183
100.385014583383
100.386626348662
100.385402447726
100.383708283914
100.381698821868
100.379498342473
100.377277943329
100.375052410212
100.372816051124
100.370716412534
100.368922358134
100.36750763389
100.366467025887
100.3656770922
100.365025318385
100.364464849649
100.364012288805
100.36366207963
100.363387205952
100.363232422802
100.363349480028
100.364036425766
100.365602414555
100.367665879771
100.369766506289
100.371634251273
100.372701209732
100.372614097684
100.372597381651
100.372003275491
100.371441759967
100.369476983108
100.367292457644
100.365318559286
100.363871048399
100.363283078401
100.363216468332
100.363367400791
100.363630825056
100.363976914817
100.364419242638
100.364956367545
100.365580485634
100.366329825595
100.367313122349
100.368640606228
100.37032520619
100.372305107243
100.374419811166
100.37650311162
100.378527370358
100.38047987816
100.38223460369
100.383733603764
100.384827825271
100.385368418316
100.387231814314
100.388496320985
100.387851471937
100.38654715307
100.384724827526
100.382543070488
100.380160423514
100.377771492983
100.375423198726
100.373120161376
100.370964751093
100.369108549327
100.367623093593
100.366517490604
100.365669126635
100.364969627298
100.364373902563
100.363896684368
100.363559205466
100.363332005864
100.363261785565
100.363506509116
100.364356770562
100.366057823196
100.368155314421
100.370187474513
100.37193466851
100.372931674613
100.372813325944
100.373129943797
100.37338581572
100.373367364669
100.373577153867
100.37347030979
100.373679979061
100.373576445692
100.37380656833
100.373767210932
100.373847441409
100.37370901133
100.373669851892
100.373525992895
100.373343595611
100.373300377966
100.373242573324
100.373531694968
100.373690287758
100.373618025608
100.373658170152
100.373464010632
100.373553869426
100.37335890738
100.373463006169
100.373262870953
100.373276831569
100.373029439479
100.372887645495
100.373152430565
100.373148360863
100.373329439377
100.373246399682
100.373414100758
100.373367226523
100.373520657265
100.373462946193
100.373470297879
100.373253635248
100.37324329029
100.373125260847
100.373149795707
100.373045900607
100.373188179914
100.373331662008
100.373334519614
100.373213948506
100.373291397356
100.373148404712
100.373218305535
100.37305279787
100.373044897156
100.3727846127
100.372681871291
100.372888911451
100.372934308021
100.3730850141
100.373054212952
100.373136891619
100.373178481173
100.373070113442
100.373294006794
100.373363616744
100.373453146229
100.37358526956
100.373727066207
100.373874919217
100.373719732469
100.373973582619
100.37394040178
100.374037399886
100.373897510113
100.37386605351
100.373688548328
100.373415025347
100.373127166701
100.372953242995
100.37277947514
100.372569883298
100.372395703673
100.372398837848
100.37254681902
100.372808906368
100.373012766265
100.373205207328
100.373501932772
100.373311135126
100.37311195544
100.372988552259
100.373060192247
100.372953408715
100.372665741031
100.372439633833
100.372301049311
100.372119322554
100.372277070765
100.372272083831
100.372525541582
100.372810381099
100.372910802665
100.372998605731
100.373135675724
100.373196650457
100.373326148892
100.373443521694
100.373558808967
100.373689114879
100.373842828122
100.373993465319
100.374058675697
100.374155984447
100.373990216344
100.373979491438
100.373747251392
100.373563312714
100.373306695593
100.372889704905
100.372468112699
100.372108904639
100.371979611258
100.371766249531
100.371754923542
100.372054804256
100.37236332021
100.37275847926
100.372542949492
100.372241790335
100.371935473252
100.371747247629
100.371551003308
100.371313640734
100.37110891524
100.371248357431
100.37140278749
100.371729546514
100.371941149951
100.372049953806
100.371809382639
100.37193180868
100.372271408961
100.372234919515
100.372538883472
100.372721241702
100.373046885308
100.373206614543
100.373241013904
100.373349191869
100.373460649324
100.373583123472
100.373493578507
100.373711219143
100.373594750142
100.3738291782
100.373953830662
100.373845509405
100.37409457886
100.374226758025
100.374223055272
100.374324383129
100.374228823546
100.374019270244
100.374040960886
100.374016573403
100.374155360026
100.37410091696
100.374215361807
100.37412157915
100.374135672499
100.373962415298
100.374066961316
100.374324079123
100.374313632987
100.374411815295
100.374362778163
100.374208985648
100.374151448139
100.373734285371
100.373574995148
100.373466576911
100.373099711469
100.372654267665
100.372288494877
100.371716408142
100.371511553981
100.371271818069
100.371065668083
100.370884005631
100.370713716927
100.370457036428
100.370177905959
100.370067818347
100.37040842127
100.370772401767
100.370974407515
100.371147305409
100.371332989973
100.371503531599
100.371237493142
100.371394436219
100.371219172535
100.371492346976
100.371950517278
100.373099422804
100.373386340507
100.373387519517
100.37363208597
100.373615579303
100.373826840967
100.373712341306
100.373836860936
100.374071406369
100.374174202687
100.374281892251
100.374180245138
100.374427184161
100.37441725749
100.374507170303
100.374449734554
100.374286842532
100.374230968957
100.37386408719
100.373689914636
100.373349462876
100.372959878261
100.372630950708
100.372455631676
100.371911795286
100.37173606601
100.371563861005
100.371438707598
100.371445854862
100.371163065111
100.370900273819
100.370714427581
100.370375809755
100.370579733886
100.370895788605
100.371164828421
100.37131543182
100.37105916224
100.370801759856
100.370464681799
100.370466574158
100.37007549872
100.369710957271
100.369420120582
100.369199794483
100.368984713029
100.369254503622
100.369579066817
100.36988231811
100.370194916914
100.36992855837
100.370094626269
100.370210129672
100.370449474212
100.370585976808
100.371130073963
100.371597404546
100.372829798959
100.373136396421
100.373285323225
100.373273918559
100.373518400646
100.373533523844
100.373645671598
100.373777718805
100.373761833179
100.373741502314
100.373955117536
100.374060993805
100.373947330999
100.374052747413
100.374150283776
100.374365506848
100.374269529197
100.374502674651
100.374483940885
100.374573462346
100.374509369433
100.374400666768
100.374296856943
100.374001547537
100.373800731376
100.373436478132
100.373042219617
100.372749786305
100.372249780676
100.372130626724
100.371961465308
100.371805871044
100.37169321071
100.371720013641
100.371591596409
100.371809358683
100.371530697548
100.371241252755
100.370951294614
100.370632810864
100.370288757297
100.369896658868
100.369517729499
100.369029946248
100.369336134615
100.369799692901
100.370229801161
100.370464336365
100.370726017018
100.371017727104
100.371308527849
100.37132020476
100.371198843963
100.37084618993
100.370127255092
100.37009794486
100.369954268568
100.369419784516
100.368998384772
100.367908415259
100.368214931944
100.368871200522
100.369528067404
100.370201150591
100.370485937905
100.37036011401
100.369891988573
100.369298237491
100.368725186891
100.367913629191
100.367018736471
100.366098910749
100.363800022476
100.361989548591
100.36419921317
100.365672294812
100.366702757847
100.367741781399
100.367425032325
100.366195828714
100.365319082927
100.363623999125
100.361480959064
100.360401599868
100.360731401485
100.362246796054
100.364197008085
100.365519014983
100.366048747104
100.367021472839
100.367616524283
100.368397264635
100.36936210754
100.370063061125
100.370766034708
100.371371289048
100.370753805802
100.371013436455
100.370852044182
100.371242874075
100.370858905447
100.370417173223
100.369850642302
100.369216911117
100.368586388956
100.367821055617
100.366773768448
100.366268352192
100.365090327138
100.364705815792
100.364492515197
100.362713586719
100.361906360616
100.361036620157
100.355580743648
100.356749165079
100.356970266067
100.358607847949
100.359863268615
100.36369942696
100.365227350656
100.368318299317
100.368930235989
100.370964426436
100.370213081479
100.369099477067
100.369039258889
100.36908815014
100.369157950458
100.369561376024
100.368828921167
100.367229058882
100.366829431768
100.366714330025
100.366723898049
100.368842402885
100.37083788077
100.370820521803
100.371608678166
100.372116607391
100.372142644708
100.372549363446
100.372335829312
100.372489869466
100.372542275066
100.372592504308
100.372518275733
100.372385427946
100.372196937727
100.37169365525
100.371438699596
100.371717737862
100.371807577097
100.371857572241
100.372112948588
100.37205769769
100.37207003226
100.372395005627
100.372455873391
100.372639666059
100.372361076631
100.372555277562
100.372614439424
100.372276094992
100.372468676291
100.372142033718
100.372105855392
100.371625187135
100.371527373905
100.372033955135
100.372081555746
100.37238423029
100.372256378056
100.372543822733
100.372356413365
100.372560679333
100.372403026423
100.372355810715
100.372342740311
100.37242796863
100.37249642803
100.37241767384
100.372365156497
100.372266682639
100.371952932599
100.371452889497
100.371039471373
100.371448776877
100.371600966367
100.371905272633
100.371848776651
100.372227911744
100.372304053969
100.372420095472
100.372100876219
100.372301649989
100.37239441383
100.372166038445
100.37227612541
100.371879428001
100.371948082039
100.371673031005
100.371049595642
100.370834341791
100.370013747417
100.37020091833
100.37030113729
100.371205775334
100.371680110018
100.371722752111
100.372129168173
100.371906635011
100.3723200931
100.372245374046
100.372059423135
100.372317094989
100.372192724137
100.372031907353
100.371944925923
100.372105536871
100.372155543794
100.37220919453
100.372092503219
100.372061582079
100.371927697486
100.371623778829
100.371003820253
100.37028577621
100.370822032942
100.371024608259
100.371349061662
100.371420533474
100.371814668999
100.371952556233
100.372019409409
100.371676720851
100.371954441801
100.372026629918
100.371859203398
100.371900491026
100.372034903947
100.37161907938
100.371667724201
100.371300372172
100.370542919504
100.370604237947
100.371341841394
100.371368931422
100.371936495525
100.371681868316
100.371804062307
100.371889780103
100.371889686049
100.37192885984
100.371957762117
100.372094919284
100.370518631725
100.371409252354
100.371439803622
100.371678715048
100.372161503794
100.372307207507
100.372312018711
100.372572724775
100.372531655793
100.372618169928
100.372678022887
100.37252484408
100.372593631823
100.372407322094
100.372341702613
100.372521121854
100.372590491029
100.372594029942
100.372662792782
100.372683795369
100.372634374329
100.372344133441
100.372197778018
100.372390565564
100.372182122337
100.371806096386
100.371515064592
100.370835999876
100.37023232009
100.369710831724
100.370031981472
100.370267600691
100.370266929939
100.370320050429
100.370779884387
100.370833329683
100.370880059997
100.37073467663
100.370429939307
100.370821032393
100.37115196278
100.371510755901
100.371908212389
100.372170661928
100.372301731995
100.372321948171
100.372352132133
100.372347977951
100.372425570207
100.372632625128
100.37257806693
100.372744831983
100.372631550239
100.372771919656
100.372896983545
100.37277561771
100.372718297004
100.372428098685
100.372290339652
100.372019926777
100.37159674803
100.371189796283
100.37110164088
100.371368470491
100.371383335299
100.371935719395
100.371615533801
100.371826086184
100.372241233856
100.372393439455
100.372620950015
100.372635887476
100.372706443572
100.372630325421
100.37284903677
100.372735111709
100.372738572691
100.372961879233
100.372850745574
100.372788734061
100.372624391609
100.37245510846
100.372704552301
100.372808165485
100.372940195502
100.373008273195
100.373045406615
100.373007559143
100.37292501511
100.372948129096
100.372750683443
100.372732983739
100.372600334211
100.372288234847
100.372252419525
100.371669668359
100.371240299683
100.371164326005
100.370936858468
100.370877948792
100.370863090015
100.370823791531
100.371692688261
100.372197916102
100.372239342925
100.372427805837
100.372472333649
100.37271061202
100.372825104232
100.372647278747
100.372950246035
100.37293974291
100.373024004793
100.373100956332
100.373200110547
100.373277523268
100.373404009153
100.373512666155
100.373662875623
100.373778140052
100.373912334833
100.374017675786
100.374132896544
100.374223740729
100.374316459249
100.374242403144
100.374440000415
100.374345031455
100.374564494397
100.374550592185
100.374647082299
100.374557936072
100.374521755531
100.374432704561
100.374388725449
100.374181476139
100.37393042172
100.373549189224
100.373174813417
100.372904856809
100.372430827213
100.372347627958
100.372202310444
100.372148920653
100.372149586999
100.371910862393
100.371799094485
100.372024485964
100.372025994872
100.372072475538
100.372149563428
100.371913917167
100.371680216685
100.371435725101
100.371156554292
100.370844115125
100.370400258921
100.370665037181
100.371044518836
100.371318988662
100.371577226719
100.371827589018
100.371793171633
100.371521103261
100.371249422439
100.370963484485
100.37058648984
100.370092722735
100.370417822869
100.369935493961
100.369438547019
100.368977213261
100.368578222844
100.367916301455
100.36833319128
100.368893439862
100.369247735932
100.369682096506
100.369642942242
100.369516510446
100.36924095987
100.369140032847
100.369127189275
100.369446866946
100.369158992328
100.369549566904
100.371519301674
100.371906152247
100.372272261747
100.372281336662
100.373202706399
100.373077917109
100.373531886949
100.373645762815
100.373870538916
100.373858957523
100.373972472582
100.374164692878
100.374256296396
100.374347453451
100.37441692
100.374322900248
100.374501340051
100.374426211421
100.374617530064
100.374602067345
100.374682597215
100.374585913549
100.374559486618
100.374447432762
100.374216546586
100.374040368588
100.373670099169
100.373356912802
100.373076280653
100.372645486534
100.372534430833
100.372250284785
100.372364064059
100.372182669384
100.372312828078
100.372307900271
100.372435181538
100.372218208862
100.372230948435
100.372330240289
100.372396559176
100.372352190314
100.372430253603
100.372191196912
100.371967879194
100.371729820771
100.37145471053
100.371158817529
100.370818490359
100.370384625663
100.369979754886
100.369583359822
100.369966028848
100.370398814614
100.370668056506
100.371029508766
100.371332139383
100.371601073184
100.371846423303
100.372092896977
100.372110226026
100.372030567221
100.371589134268
100.371982119989
100.371488699005
100.371045354717
100.371498927118
100.371086472966
100.371313156029
100.371082048496
100.371608509121
100.370455315712
100.370007364448
100.369437874849
100.368684103341
100.367771436897
100.366933927725
100.366292948816
100.365843670363
100.365575382555
100.36401353498
100.364293757306
100.363700636883
100.363247802956
100.362164074504
100.361170947993
100.360656914903
100.36050742727
100.354608870288
100.355273490131
100.354150379353
100.354650012719
100.354545689216
100.355859536822
100.356699025092
100.355901541398
100.354708417532
100.356169566592
100.355507669003
100.355863579358
100.356633413088
100.35668514372
100.355674206538
100.355687778796
100.35923504351
100.354262350059
100.35401312226
100.356041355368
100.355938289591
100.3560532338
100.357703511335
100.358703519203
100.359891851493
100.360038963051
100.358088549211
100.359263296861
100.360906261062
100.359677334795
100.358005423747
100.358333886002
100.360244343614
100.361718086007
100.363608952228
100.365031557553
100.365584650764
100.363971475967
100.36528604394
100.36673425508
100.367164893353
100.368557146239
100.367909046659
100.368972118731
100.369839619036
100.370620817184
100.371236323211
100.371792643048
100.371947518134
100.372201730688
100.372068088308
100.371317660767
100.371661690127
100.371620045424
100.371919840804
100.370917581204
100.368443859676
100.367927128274
100.367360534198
100.36668698011
100.365878169402
100.365117050861
100.364516672352
100.364146316679
100.364006143005
100.36334400307
100.363201360037
100.363286522989
100.363322530904
100.363456896498
100.363165572938
100.362470471476
100.363629009227
100.364110601535
100.365241491443
100.366874198123
100.369008780302
100.369300643837
100.367061087189
100.365224100736
100.363913557668
100.363356756814
100.363230440655
100.363303069832
100.363505056143
100.363837344199
100.364287672436
100.364819702362
100.365418584424
100.366114800646
100.367003064011
100.368183705076
100.369708113708
100.371544634463
100.373553211294
100.375528211906
100.377339521105
100.378984769523
100.380443314398
100.381700277037
100.38263838761
100.383108330498
100.383075233435
100.38534333982
100.387216465572
100.388489347778
100.389060328615
100.389062029186
100.388397159685
100.387051266672
100.385160429895
100.382893225705
100.380413247296
100.377932316048
100.375521064483
100.373193088003
100.371023528965
100.369145915598
100.367624834718
100.366475410854
100.365585832948
100.364854649672
100.364239751671
100.363759897305
100.363448961985
100.363311775474
100.363378288057
100.363789377782
100.36483908667
100.366660582478
100.36874698263
100.370662634868
100.37113908916
100.372628718865
100.373476700451
100.37335392394
100.373627474365
100.373375483693
100.373884579559
100.374003864858
100.373987753299
100.37408934804
100.374079526215
100.374177682078
100.374269403133
100.374345670695
100.374481870098
100.374394613919
100.374558243923
100.374498432435
100.374662649829
100.374653815007
100.374721408631
100.374642042491
100.374613582423
100.374509153837
100.374285221171
100.374126846168
100.373684111072
100.373510383859
100.37330601664
100.373167986069
100.37292342583
100.372774179886
100.372505004692
100.372553427255
100.372509171383
100.372525551292
100.372625531433
100.372552802457
100.372774766367
100.372613710049
100.372363784704
100.372548666644
100.372587967658
100.372620464099
100.372692763653
100.372500604983
100.372463779799
100.372138457978
100.371889829862
100.371643620244
100.371344643625
100.371027879339
100.370648303661
100.370391994633
100.37059583442
100.370984613403
100.371297969015
100.371601703399
100.371845934196
100.37209463888
100.372357287789
100.372345193916
100.372414224281
100.372332656371
100.372156555252
100.372329685894
100.372144016842
100.372382922784
100.371946646929
100.372362583288
100.371989635178
100.371730962506
100.371939746184
100.372010978359
100.371936440276
100.372230225844
100.371432719915
100.369014625066
100.367260627975
100.366148191981
100.365462012847
100.364971212182
100.364455655136
100.36401667196
100.363595356604
100.363402594944
100.36325913838
100.363197233351
100.363183816194
100.363152546552
100.363434796432
100.362946894503
100.363113216013
100.36317312602
100.363276563236
100.363249050969
100.363286762291
100.363408240969
100.363393015246
100.363427808192
100.363344987133
100.36358126718
100.363422400821
100.36321707487
100.362490308458
100.361325536342
100.361116463677
100.360045041809
100.360069211763
100.354460991822
100.354984842598
100.3547876516
100.356611960989
100.356440758918
100.358023700721
100.358742131896
100.357940669084
100.357204357083
100.357738468271
100.358132593257
100.35799547836
100.35842582006
100.358843699798
100.35802619409
100.360692920845
100.360057288504
100.358687682926
100.360577026451
100.360584199292
100.357115630375
100.356976308242
100.355376535792
100.358961760167
100.361207465701
100.364390585163
100.367295857598
100.368771170777
100.369331834685
100.370428683878
100.371098557407
100.371270486795
100.371236969768
100.371659253249
100.371535534917
100.371800490211
100.371852371062
100.371644823152
100.371863049632
100.371617912829
100.371376294198
100.37159185094
100.371706884488
100.371586496336
100.371354497475
100.370940475698
100.370392277995
100.370966544891
100.371007193623
100.371325159622
100.371310326991
100.371531628408
100.371723452366
100.371785308634
100.371473133261
100.371715469402
100.371778870013
100.371350465204
100.371532112035
100.371652275964
100.371193078131
100.371208251345
100.370718933038
100.369847923259
100.368755308761
100.368228603949
100.366415883835
100.368107664082
100.367962987182
100.369154173255
100.370090872371
100.370967461084
100.3713581482
100.371342542427
100.371729465845
100.371568809208
100.371994079779
100.371753074691
100.371774985657
100.371833095461
100.371784201455
100.371740220765
100.37162056416
100.370573643691
100.37137713123
100.371535661735
100.370640831995
100.368262372879
100.369282465086
100.369634412029
100.370872625079
100.371461828227
100.371498936839
100.370993197471
100.368603894764
100.369866075086
100.370315747356
100.371168065584
100.371550551064
100.371259645406
100.37103500558
100.370881972116
100.370436645576
100.369239681755
100.370181267283
100.371213618432
100.371309700195
100.371365039679
100.369828394537
100.370568441537
100.370766993085
100.371487667563
100.371976495172
100.37204756701
100.372085819621
100.372130295958
100.372166471909