/*--------------------------------*- C++ -*----------------------------------*\
| =========                 |                                                 |
| \\      /  F ield         | OpenFOAM: The Open Source CFD Toolbox           |
|  \\    /   O peration     | Version:  v1612+                                |
|   \\  /    A nd           | Web:      www.OpenFOAM.com                      |
|    \\/     M anipulation  |                                                 |
\*---------------------------------------------------------------------------*/
FoamFile
{
    version     2.0;
    format      ascii;
    class       volScalarField;
    location    "0.3";
    object      p;
}
// * * * * * * * * * * * * * * * * * * * * * * * * * * * * * * * * * * * * * //

dimensions      [0 2 -2 0 0 0 0];

internalField   nonuniform List<scalar> 
79587
(
100.075646068952
100.077590342898
100.074214910378
100.078562055123
100.085603768925
100.08571921229
100.083674609477
100.084199401325
100.084312402183
100.084686577826
100.084973845688
100.084785966157
100.086664290317
100.086352410355
100.088690253422
100.088648089528
100.085330295605
100.080683617045
100.07966578898
100.079662812086
100.08065315792
100.080370177061
100.07958871068
100.081133749456
100.087543021175
100.087441665971
100.081785318021
100.080116914873
100.080090505647
100.079273752372
100.079146716817
100.080215022519
100.080126828605
100.081742019602
100.087205140982
100.087108947731
100.080934586514
100.07954990761
100.080359401799
100.080430223665
100.079526868779
100.079531437422
100.080598726701
100.085163169231
100.088306253442
100.088162494004
100.08126400958
100.080812099906
100.078525929645
100.077817241528
100.077945090412
100.077812595423
100.077220068099
100.075898448191
100.077015662243
100.078333227415
100.078431973784
100.077524978438
100.076559042537
100.075334811458
100.075005184875
100.075595329824
100.075519083145
100.074843427583
100.075345441464
100.076540445531
100.077370179287
100.078455411792
100.078530884471
100.077115602995
100.076037300966
100.077391318219
100.077884327409
100.077988885477
100.077775262222
100.078480369908
100.08101881243
100.081740773164
100.079331089229
100.08223244857
100.085147509203
100.086498978511
100.084176559431
100.083985990485
100.085378421117
100.083659795642
100.081298495807
100.077068534032
100.082345625305
100.071114969829
100.060112729448
100.065882108873
100.066979129961
100.077923641513
100.07359449367
100.074223787168
100.076548341761
100.074673343305
100.073191561522
100.072606537136
100.075326783574
100.07714381743
100.073003289135
100.072241242056
100.074439797836
100.071178321981
100.070066597216
100.071297650101
100.07129903775
100.070112040135
100.071187856895
100.074381405516
100.072112945946
100.072547680288
100.077185992189
100.075761418138
100.072892882958
100.073332634568
100.074720420393
100.076540275872
100.074125552045
100.073432549918
100.078181993733
100.07820641738
100.075187673031
100.078299709309
100.084510921812
100.089199320608
100.08214332285
100.082086720842
100.086892178978
100.102835355579
100.072532745221
100.073053912052
100.057363025247
100.030376690965
100.031313920657
100.027140652149
100.027441545116
100.033731012126
100.065149415045
100.076356214812
100.07206209851
100.071802944052
100.078494906341
100.066713966417
100.067410342179
100.067243453852
100.067474143782
100.075230347663
100.070767636224
100.07074974216
100.075167112555
100.067491669771
100.067304510006
100.067440479944
100.066571556449
100.065273419728
100.067275275221
100.065232623755
100.025599648852
100.028016192066
100.028822646218
100.028459386858
100.027855944947
100.027945891838
100.029422412725
100.030039944801
100.034169193246
100.031419193443
100.032407214325
100.035918599587
100.035922884029
100.032451169198
100.031429126273
100.033974127572
100.03347661228
100.026870014084
100.027683961926
100.034252506774
100.034926116992
100.033523200596
100.033175326748
100.034451194994
100.034361291604
100.033549014939
100.033880780787
100.034126021374
100.029098524184
100.029922161924
100.031153045645
100.031108562675
100.029836780328
100.028933503713
100.029835989758
100.029166769032
100.033356182318
100.034697117378
100.035286117386
100.035436658192
100.034813716264
100.034917160915
100.035579395122
100.035466914586
100.034908115837
100.035109948946
100.035266549883
100.035276931635
100.034459825184
100.034115553703
100.034054547093
100.034309337532
100.03385869495
100.033657170833
100.034906507722
100.033177770072
100.032993291087
100.033169074071
100.032991214535
100.03327556553
100.0335964582
100.033480710889
100.033347145101
100.033143446165
100.033327229696
100.033318333174
100.033325635858
100.033210692611
100.03493464403
100.034889263748
100.035166747317
100.035062949383
100.033184673711
100.030875030493
100.030894722578
100.030764699887
100.030844129105
100.030763093172
100.030569007622
100.030589887414
100.030808286561
100.030872179912
100.03078912393
100.030959357476
100.030937056228
100.031018261439
100.03097984649
100.030960587779
100.033183137574
100.033296121698
100.030993805351
100.029102886096
100.028989616902
100.028994040885
100.028885738275
100.028951128665
100.029032317055
100.029116683972
100.02885724609
100.028634773091
100.028831296008
100.028784476021
100.028961244381
100.028972038699
100.029095172967
100.029088402282
100.029085613835
100.027436376831
100.027434749876
100.027303705085
100.027271448328
100.027140422652
100.027105812428
100.026940013257
100.027169484252
100.027035935693
100.026727552919
100.026986423883
100.026948888004
100.027150910947
100.027208636651
100.027379786442
100.02741805908
100.025708292313
100.025741425558
100.025693255774
100.025487291301
100.025395345775
100.02519000642
100.025067436893
100.024726426769
100.024326548688
100.024379550232
100.024731837618
100.024928149671
100.024965511408
100.025218283965
100.02533215158
100.025602469095
100.023513752976
100.023730383695
100.023771345554
100.023621976158
100.0232963891
100.02312234834
100.022766844364
100.022567483835
100.022351429754
100.021431150233
100.021456537723
100.022274122985
100.022364466258
100.022588465691
100.022912630242
100.023111503605
100.01993517943
100.020678445709
100.021089262478
100.021121776779
100.020745196309
100.020092728325
100.02009272064
100.019497263696
100.018892069755
100.018968450042
100.017333737413
100.017302338753
100.01882869242
100.018697646276
100.019384388774
100.019880715606
100.015345744453
100.014513651909
100.016059156976
100.01708404815
100.017095134735
100.016122668001
100.014578468696
100.015501339125
100.01475094641
100.012513786813
100.013731029915
100.01013977973
100.010093193061
100.013634201113
100.012412901094
100.014675303119
100.00328943518
100.00352267508
99.9985775465023
100.001368103875
100.005365107481
100.005361334747
100.001522029171
99.9983733779325
100.003640887433
100.003261796922
99.995346880973
99.9991956112113
99.9945330780079
99.99445386681
99.9991115626779
99.9957059169723
100.002357802791
100.011522580791
100.01079421954
100.005065474015
100.011625378732
100.013673733771
100.013588822866
100.011518450301
100.004846092485
100.010587312443
100.011435753882
100.002314176521
99.9977682082878
100.028527179274
100.050125291104
100.049889203984
100.028319949329
99.9949863408772
99.9953807635888
100.088428677661
100.171818351485
100.107577906801
100.107764611357
100.094467779544
100.08367095521
100.074013698855
100.072151809697
100.069015769462
100.068854027667
100.081544282075
100.074014279109
100.073932531019
100.081326253651
100.0687227272
100.068714616089
100.072298948584
100.073924677236
100.083362260297
100.093813135243
100.185118766959
100.201237229112
100.201347908776
100.185413834427
100.189055718556
100.180195736109
100.205932133073
100.248562360682
100.159424001416
100.16178663487
100.213371288715
100.177474143676
100.202953195116
100.227705603417
100.168021427633
100.167915696496
100.22760260216
100.202776155447
100.177196545182
100.212944456204
100.160838725947
100.158539171884
100.205521057491
100.180226742008
100.188506742828
100.275625036902
100.320397211485
100.289009503442
100.288917369564
100.320813869854
100.294967657065
100.276088181622
100.400208209692
100.429822206868
100.38269440223
100.40180557852
100.405783477995
100.355011191763
100.297774627023
100.33131654841
100.277150813008
100.400354684459
100.434012338649
100.390826424869
100.394186317817
100.319530223443
100.323561496374
100.251412297083
100.298352018902
100.384546196954
100.429831130788
100.397833309368
100.404136948716
100.339310195928
100.291691342328
100.332571556707
100.312123363301
100.316298357667
100.339155621906
100.250214584173
100.250203806217
100.339180759043
100.316407313495
100.312123056806
100.332330178615
100.291162391206
100.339025992671
100.32331819579
100.319163394789
100.33084842023
100.297352008166
100.294768095192
100.354496811858
100.40129775204
100.382295346837
100.396545240384
100.42729106265
100.427390133947
100.396845966618
100.367150741222
100.367112243301
100.445980161595
100.469650476744
100.458871909555
100.458968827931
100.459633798442
100.450364174953
100.432209596814
100.476001262877
100.477345360434
100.472400046601
100.468563559054
100.467403824269
100.4602317451
100.44508675748
100.445808585552
100.448698857556
100.459999274308
100.429814579867
100.431589730288
100.434828506844
100.441971906446
100.462340059553
100.459683241313
100.440785146625
100.399588865898
100.407316327869
100.385617973679
100.417031481927
100.405472724977
100.40537236672
100.416860247041
100.385452130237
100.406996134765
100.39930872065
100.403770203223
100.397469393377
100.393837300156
100.39031569098
100.405286855029
100.445499936534
100.444705320086
100.450146607199
100.459602610284
100.472358854111
100.471383774128
100.480875149163
100.480991051902
100.471626377006
100.469934071262
100.469840389503
100.476468412417
100.473712234938
100.475854446441
100.476031026474
100.475777035047
100.475024629229
100.47272807979
100.477630933143
100.480885949152
100.480102009804
100.479429797694
100.481088629657
100.478764176204
100.476023561593
100.47938755054
100.477397644976
100.472768187107
100.467998621138
100.473912859972
100.462531675612
100.480664255749
100.479455138128
100.477776076636
100.475709933579
100.480361131719
100.475799401199
100.475010373783
100.480348948892
100.463439207171
100.466276666138
100.467422403465
100.480124617868
100.475230991949
100.473792193442
100.472014811007
100.4564325868
100.44900635864
100.453905684441
100.43912207783
100.439076107386
100.453836889442
100.448899224929
100.456263696841
100.440465657653
100.459368046215
100.462016537817
100.441615424556
100.434471146493
100.431251101187
100.429390214699
100.448340598939
100.462168088773
100.467631624398
100.467043802309
100.468254534186
100.475761045352
100.47470772302
100.475838256689
100.480086364173
100.477897705176
100.480112748718
100.48021710766
100.477886759468
100.476465145176
100.47646773618
100.478237570854
100.480354820005
100.480527975527
100.480597653087
100.481646359041
100.479854729563
100.479326638425
100.480443492202
100.482102918304
100.481937607382
100.482703029231
100.481135665104
100.48249325132
100.480773133056
100.482758715303
100.482188487741
100.482745601921
100.481535377126
100.48016485427
100.479350070075
100.476150050052
100.476430856735
100.478737791001
100.481186342965
100.480266255993
100.479213453024
100.479869582369
100.477173077449
100.474952591745
100.478209472765
100.481610185143
100.47699668508
100.476677525146
100.481516408496
100.479153070707
100.481567494322
100.476934776708
100.440172738
100.435657970611
100.437790097313
100.449840593801
100.452529634008
100.441839296832
100.441050892607
100.438244930964
100.436197842307
100.431090908326
100.434077262034
100.421322054525
100.431763914407
100.447877653132
100.434061829865
100.436400747069
100.447046611218
100.469524068166
100.468370166886
100.474273069267
100.464820451594
100.467119371158
100.472412417369
100.474945602937
100.466476083072
100.456359456692
100.453442308965
100.430360071555
100.436720650454
100.441629679546
100.441230742103
100.434001665132
100.428553455271
100.441252592833
100.426300208774
100.426563596676
100.437493478376
100.439744726988
100.426488376976
100.424122415298
100.445439783574
100.476505372033
100.476851120528
100.465563254426
100.483364420571
100.468226795875
100.499619797407
100.482027822323
100.467337475263
100.473070546369
100.472376305495
100.476195386363
100.467702138351
100.471566132334
100.456305674174
100.436491590087
100.430932975352
100.436088250058
100.415088602882
100.421641757989
100.445558389776
100.442712109596
100.435156739787
100.429264896656
100.443316551305
100.43170760831
100.429894560239
100.43792813536
100.428347306332
100.426469827017
100.42629689358
100.426277377236
100.424012785561
100.44536832326
100.476424838957
100.476783099833
100.465458142627
100.483236153251
100.480184458773
100.437897099048
100.438832816435
100.438927253969
100.432708911477
100.437940448925
100.480287147355
100.48328730959
100.480458190709
100.494297267858
100.489066481793
100.469280172659
100.449589511312
100.468215113428
100.472990496228
100.470247763135
100.470208130308
100.471526668612
100.456297738956
100.436477295829
100.436449856942
100.436465147645
100.441201958536
100.441375492213
100.438068507093
100.441211719154
100.433700760478
100.426281451524
100.430046284089
100.442330019398
100.436412230466
100.450450397862
100.441551092847
100.440499779324
100.447479866114
100.437626367657
100.437577598337
100.428238243697
100.43788778353
100.437400414689
100.439606784298
100.436192659236
100.446796973467
100.469207429632
100.468167502707
100.474057947926
100.467998218444
100.499319830437
100.48310091171
100.432523782594
100.438196846622
100.438290593268
100.4740023214
100.473842068728
100.494231603056
100.490288852248
100.490218288494
100.472910149803
100.476058606923
100.467555617912
100.453275565369
100.430293573053
100.430904704374
100.43602725117
100.441192000847
100.441387233789
100.446133797989
100.446144724964
100.439149125519
100.439474059659
100.454405490329
100.449632943164
100.454366498623
100.453662610574
100.450642609777
100.449764677615
100.448350102553
100.450675093064
100.45785908504
100.45785764344
100.450842208821
100.44842273934
100.447573192354
100.440397414278
100.429712592547
100.426318871599
100.426795126851
100.433819065375
100.447536826539
100.466782888574
100.464535065753
100.46699819
100.481689406735
100.488834858497
100.494025621302
100.48031955737
100.473890315701
100.473732734043
100.494109243714
100.468263200175
100.462873963877
100.469984553716
100.467929002899
100.461255491834
100.476338406537
100.476423196454
100.477674527013
100.476889178685
100.474702638194
100.473497653573
100.474591643126
100.477201292543
100.478639375037
100.479115733817
100.478833794619
100.477956875449
100.476949664296
100.47618439226
100.476078121969
100.477803220421
100.48306653081
100.495295935862
100.515394206091
100.551310671476
100.546352365466
100.486437682767
100.437426355391
100.388376983702
100.360728699457
100.380830773294
100.378895648545
100.377070243909
100.377688384882
100.378766963208
100.37978511476
100.380964711032
100.382443175014
100.384100477804
100.385705477152
100.387029068025
100.387914707287
100.388295370814
100.388295380647
100.388000208501
100.387417710058
100.386596894069
100.385596065467
100.384397905219
100.383067256116
100.381626805939
100.380047219261
100.378353425148
100.376640298976
100.374989983471
100.373470389462
100.372280272167
100.371750346554
100.372267674747
100.374105668835
100.37520190614
100.374854499488
100.374636925374
100.375505419681
100.376177350743
100.376589521366
100.376678454817
100.376698943415
100.376762169999
100.376775200181
100.376865812128
100.376891248316
100.376927503839
100.376952903903
100.377017693754
100.37704608846
100.37711642694
100.377188660901
100.377246497781
100.377226697861
100.377227960274
100.377105097597
100.377067281054
100.377010448568
100.376958664827
100.376903317727
100.376853283765
100.376779980706
100.376747842972
100.376678830006
100.376630771192
100.376566372518
100.376511134288
100.376408540765
100.376509902254
100.376389873926
100.376564908047
100.376612187158
100.376678036459
100.376726061745
100.376795783644
100.376846673596
100.376914679961
100.376963130464
100.377020834883
100.377068191703
100.377126809317
100.377196873684
100.377188765722
100.37713823479
100.377041580289
100.376982532211
100.376950257923
100.376883605079
100.376860071307
100.376820756719
100.37678914515
100.376714723622
100.376602483433
100.376631529067
100.376730047761
100.376754084347
100.376795192946
100.376813404552
100.376881763487
100.376922122127
100.376988775749
100.377087394583
100.377144017389
100.377095338853
100.377033260643
100.376923466494
100.376852141045
100.376812365992
100.376746513983
100.376725555465
100.376676236417
100.376649186532
100.376554251417
100.376430468169
100.37647524205
100.376589216599
100.376603326811
100.376659025632
100.376677824674
100.376746110664
100.376787537606
100.376854214656
100.376969199923
100.377048458008
100.376989067871
100.376903497533
100.376779457045
100.376727791134
100.376686513827
100.376603752283
100.376588155918
100.376527131062
100.376506213395
100.37639510647
100.376253454903
100.376316438232
100.376442760737
100.376452014903
100.376513667774
100.376521729135
100.376603929748
100.376658322195
100.376711326331
100.376837854714
100.376931137503
100.376874141975
100.376769175181
100.376633510352
100.376566486173
100.376513990717
100.376446907217
100.376438728666
100.3763744163
100.376355624571
100.376232767917
100.376072325649
100.376160062006
100.376291335154
100.376301265607
100.37636220388
100.376376919281
100.376432942318
100.376487470439
100.376549483094
100.376695297377
100.376812365193
100.376735405086
100.376619010686
100.376466283933
100.376407038744
100.376419094279
100.3763668202
100.376307827914
100.376279288083
100.376224429168
100.376200625854
100.376077211728
100.37589482129
100.376015458678
100.376137954542
100.376156279163
100.376209999543
100.37623886916
100.376301676873
100.376354987563
100.376411709518
100.376563163151
100.376678159022
100.376609180471
100.376496625003
100.376336133716
100.37627817165
100.376223803849
100.376164103445
100.37613232919
100.376082308229
100.37604560209
100.375932703769
100.375728308955
100.375877862982
100.375984630981
100.376016635525
100.376059069983
100.376096281608
100.376158100849
100.376214210574
100.376260885107
100.376433066518
100.376547139272
100.376427470654
100.376345028084
100.376182981585
100.376153608337
100.376083028517
100.376022155256
100.375987514853
100.375946448129
100.375895944294
100.375800143621
100.375586009237
100.375768032275
100.375838285054
100.375875369496
100.375918482961
100.375958203195
100.376015983941
100.376079843686
100.376088273278
100.3762662813
100.376322514603
100.376342823087
100.376279843891
100.376269271535
100.376209514296
100.376146165003
100.376038475985
100.376062336575
100.375979492702
100.375942137601
100.375880716379
100.37584736471
100.375803170232
100.375766194347
100.375685321435
100.37562747975
100.375363400728
100.375127672908
100.375369325623
100.375578989761
100.375621583414
100.37570387995
100.375735763167
100.375788729088
100.375825353094
100.375882481554
100.375912013686
100.37607743605
100.37613350762
100.376246508676
100.375971633854
100.375822563286
100.375963523654
100.375931262913
100.375903094872
100.37602475377
100.375895915198
100.376027097814
100.3760617131
100.375991840899
100.37583431908
100.375799199447
100.375746466843
100.375716335661
100.375646787688
100.375637522267
100.37554489919
100.375476849875
100.375281285856
100.3749047622
100.375258359558
100.375432372408
100.375489689885
100.37557309958
100.375610521924
100.37562318646
100.375695844622
100.375768664216
100.375788922328
100.375958124304
100.375998124993
100.375858968783
100.375884190156
100.375877186428
100.375936731176
100.375799809117
100.375816038957
100.375899892126
100.375695420275
100.375709366115
100.375646768876
100.375578532765
100.375549235366
100.375500723428
100.375423617013
100.375353543073
100.375194101205
100.374832633243
100.375192669516
100.375322003185
100.375377857207
100.375433218596
100.375487378149
100.375519614997
100.375577082547
100.375663395663
100.375669263948
100.375711677357
100.375695127951
100.375723659034
100.375742148053
100.375797929051
100.375753666573
100.375842991319
100.375900510969
100.375966770138
100.376022288199
100.376096391795
100.376161215479
100.376238181191
100.376305258088
100.376385261314
100.376469657115
100.376547912636
100.376609532208
100.376688327172
100.376759468823
100.376838671233
100.376914287703
100.376990320229
100.377051354205
100.377023331539
100.377080850078
100.377173061534
100.377144057859
100.377252026204
100.377294331479
100.377250089801
100.377304369768
100.377106694799
100.376968538967
100.376874752605
100.37663236983
100.376506033233
100.37642845468
100.376279411217
100.376181314653
100.376095345518
100.37600550183
100.375887138922
100.375817176202
100.375746528741
100.375670095638
100.37556380526
100.375534673916
100.375521391424
100.375808852002
100.375800079764
100.375936689092
100.376018033756
100.376090332372
100.376108098042
100.376177855963
100.376276000483
100.376348719667
100.376400469503
100.37649178682
100.376590605664
100.376667840268
100.376721123151
100.376886880023
100.377131149713
100.377259058532
100.377202194785
100.377192298708
100.377164051123
100.377034836402
100.377091312158
100.377146250383
100.377191532899
100.377318727889
100.377359232728
100.377361845356
100.377206455447
100.377063217409
100.376830943407
100.376545942777
100.376254159395
100.376138131996
100.375997295674
100.37577514544
100.375578070972
100.375321370402
100.375117122454
100.3749477948
100.374780937845
100.374629145283
100.374437414826
100.374288973572
100.374125311742
100.373941649062
100.373774609278
100.373981169171
100.374283052385
100.374479001933
100.374576293341
100.374715716155
100.374870754053
100.375024097098
100.375137182603
100.375294032684
100.3754406725
100.375647313329
100.375990936414
100.376032019714
100.376235660958
100.37641150025
100.37674170877
100.376544905134
100.376542929963
100.376908864769
100.376974199822
100.377073830728
100.377022081689
100.376997667567
100.37694866132
100.376960742972
100.376994062753
100.377051712329
100.377081570028
100.377133850919
100.377204614892
100.3772412791
100.37735874925
100.37739546864
100.377387683479
100.377280545993
100.377142869589
100.376832244929
100.376638831016
100.376510659739
100.37631246056
100.376040011796
100.375776949523
100.375630626011
100.375426564823
100.37518373759
100.375035324563
100.374853285322
100.374653806675
100.374415517455
100.37419417161
100.373972335547
100.373799194495
100.373561134633
100.373329527625
100.373038560356
100.372780152296
100.372563014623
100.372411168161
100.372119774082
100.371880170416
100.371922405597
100.372348761515
100.372638514843
100.372839988669
100.372897364363
100.373098467185
100.373334373091
100.373588240634
100.373781887495
100.374003312031
100.37416373033
100.374348332878
100.374540170988
100.374798379235
100.375055614335
100.375244897804
100.37552891229
100.375595346526
100.375820422904
100.375608518446
100.375805577375
100.376009650082
100.376124621103
100.376391871311
100.376962981593
100.377057689528
100.377048379609
100.377031787576
100.377076880147
100.377105495785
100.377120894883
100.377153140536
100.377192903899
100.377244152709
100.377292510351
100.377404709667
100.377443856082
100.377429685884
100.377350415833
100.377311623477
100.377266503413
100.37705993664
100.376794232615
100.376469007385
100.376188500395
100.375925259498
100.375535972277
100.375488949848
100.375369704835
100.375182453085
100.375126192827
100.374945199631
100.374777977946
100.374633990034
100.37447797806
100.374246941421
100.374241922885
100.374001781288
100.373776876862
100.373576750084
100.373267109283
100.372975871772
100.372698341217
100.372488255605
100.372110832423
100.372327291659
100.37267957859
100.372969908956
100.373255287631
100.373545207482
100.373710522125
100.373937963023
100.374204988239
100.374249907195
100.37434411546
100.374548695695
100.374741125582
100.374991892439
100.375187819423
100.375343832309
100.375345351423
100.37521526735
100.375273070829
100.375324002427
100.375488565147
100.375447286415
100.375666134471
100.376775491374
100.376827660267
100.377098441768
100.377204444691
100.377229551928
100.37722339591
100.377208875764
100.377244882092
100.377259477169
100.377280606042
100.377319656473
100.377361568009
100.377412494154
100.377498273568
100.377576004836
100.377533208337
100.377521592179
100.377437738367
100.377349961128
100.37713016922
100.376939965655
100.376542887893
100.376355061883
100.376127766099
100.376001944888
100.37581454308
100.37565205258
100.375407600193
100.375480827349
100.375368542178
100.375229935429
100.375307104389
100.375103882406
100.3749680715
100.374842109079
100.374679520554
100.374774422878
100.374565715491
100.374349551907
100.374169053439
100.373969091597
100.373749662161
100.373460180501
100.373162482411
100.372866744241
100.372540257086
100.372179901282
100.371765862503
100.371352093975
100.370706817262
100.371003321687
100.371544826459
100.372026656266
100.372265735564
100.372554446472
100.372859090763
100.37316420408
100.373468344115
100.373681708245
100.373890179911
100.37412267399
100.374444403368
100.374673400976
100.374578916437
100.374618263503
100.374785152108
100.374948447572
100.375245933995
100.375247104946
100.37524009233
100.375196097115
100.375103048351
100.374922305239
100.374832424166
100.374504689353
100.375645916721
100.373657749907
100.372947868733
100.372864519935
100.372254298978
100.371798859612
100.371190964604
100.370485071038
100.369599241123
100.368797670811
100.366482353488
100.368725039877
100.358975974934
100.359877919508
100.36408533716
100.363464798066
100.365521225662
100.366741376351
100.367295825831
100.368397291198
100.369424976177
100.37036479191
100.371197048464
100.371919800047
100.372500701341
100.373117877514
100.373572930139
100.373370852414
100.374265361662
100.373342271976
100.375284254854
100.375311560619
100.374667370682
100.374839015948
100.374679719599
100.374530267615
100.374248143161
100.373787816624
100.373169138767
100.372376993124
100.371198511826
100.370751093505
100.367377260475
100.368040761892
100.369812754852
100.370282065751
100.368691305974
100.364840871563
100.362865176264
100.3631897163
100.349838409136
100.353811140515
100.349288904538
100.355717273902
100.356861227529
100.35762297783
100.36039841282
100.35986269222
100.357507088129
100.355895291166
100.353775227786
100.356547984474
100.359185242339
100.361063214975
100.362774680477
100.36377045198
100.361694354492
100.361360269346
100.366950570779
100.371540827918
100.37397894923
100.374857433775
100.375292176568
100.375400923032
100.375379489056
100.375422077127
100.375583476155
100.375758750643
100.375947348968
100.376136920438
100.376323368328
100.376500922863
100.376662195885
100.376875603852
100.376861827194
100.376953882306
100.376953664477
100.377009978808
100.377023622104
100.377016159886
100.377077109845
100.377136063302
100.377182148088
100.377229061351
100.377271523772
100.377299432618
100.377348547988
100.377441026344
100.377482966577
100.377498235005
100.377527094623
100.377480869321
100.377428487808
100.377329214931
100.377371671825
100.377410170135
100.377509021413
100.377548446552
100.377628913931
100.377606670943
100.377486183486
100.377346089199
100.377232779081
100.37711146306
100.377018704882
100.376786785865
100.376522576675
100.376074933884
100.375988895592
100.375767440158
100.375752455057
100.375658454743
100.375636292339
100.375473404051
100.375679080093
100.37550938281
100.375621518889
100.375518531862
100.375408517892
100.375214139475
100.375281296322
100.375104926521
100.37500173003
100.374872473747
100.374712305066
100.374525078034
100.374279011361
100.374281532922
100.374038833941
100.373800481302
100.373566105566
100.373316899226
100.373038778569
100.372744826901
100.372344344522
100.372598231211
100.372956582549
100.373233365297
100.373491386523
100.373739068422
100.37397715338
100.374221239555
100.374135712952
100.3742638176
100.37447987771
100.374672360563
100.374894987801
100.375016955362
100.375193315834
100.375109579886
100.375191701772
100.375389274885
100.375499534254
100.375444350263
100.375354555035
100.375270517307
100.375081131964
100.374745101904
100.374511286729
100.374389986239
100.374712657437
100.375003016427
100.375274291049
100.375719585855
100.37672659054
100.377111280635
100.377212316282
100.377192439831
100.377253697737
100.377263505468
100.377310300634
100.377315059839
100.37734545318
100.377398669326
100.377447676422
100.377574587416
100.377588018413
100.377626689592
100.377602084347
100.377513798153
100.377462513823
100.377399070197
100.377193161063
100.376969112291
100.376783033957
100.376617300967
100.376232397031
100.37608455603
100.375732720674
100.375791540428
100.375623479533
100.375699608719
100.37570774473
100.375773934448
100.375657352601
100.375856174386
100.375692379289
100.375776035495
100.375672997167
100.37560732786
100.375437836315
100.375459217162
100.37531163845
100.375186131858
100.375059809161
100.374937463383
100.374764129682
100.374682294165
100.37448161908
100.374269951615
100.374033310333
100.373804542949
100.37356550775
100.37327358216
100.372963159084
100.372651282757
100.372298963305
100.371856695648
100.371532654708
100.371901173523
100.372343734071
100.372584156962
100.372920221227
100.373223774041
100.3735027127
100.373749010101
100.373997897556
100.374235554668
100.374478972729
100.374695891826
100.374633225363
100.374786470297
100.374934111931
100.375063518433
100.375220387803
100.375411061391
100.375362336374
100.37542073276
100.375527914441
100.375701962332
100.37563565693
100.375626921067
100.375480621565
100.375118002428