/*--------------------------------*- C++ -*----------------------------------*\
| =========                 |                                                 |
| \\      /  F ield         | OpenFOAM: The Open Source CFD Toolbox           |
|  \\    /   O peration     | Version:  v1612+                                |
|   \\  /    A nd           | Web:      www.OpenFOAM.com                      |
|    \\/     M anipulation  |                                                 |
\*---------------------------------------------------------------------------*/
FoamFile
{
    version     2.0;
    format      ascii;
    class       volScalarField;
    location    "1.9";
    object      p;
}
// * * * * * * * * * * * * * * * * * * * * * * * * * * * * * * * * * * * * * //

dimensions      [0 2 -2 0 0 0 0];

internalField   nonuniform List<scalar> 
87341
(
100.10275856122
100.104770908881
100.101164706456
100.105676452164
100.112693090289
100.112929551445
100.110965139963
100.111565958892
100.111773738822
100.112097108565
100.112266428447
100.111998344672
100.113779157267
100.113325099517
100.115558137862
100.11560709612
100.113118672646
100.109678552681
100.107173839541
100.106839881042
100.106710714259
100.108139082183
100.10594426816
100.107690979294
100.110005249642
100.114156360662
100.108775018027
100.107731130466
100.106973300006
100.106774711833
100.106652755741
100.107075024212
100.107665187434
100.108658897939
100.113902098204
100.109843355637
100.107468795313
100.105647353797
100.107779569472
100.106323771342
100.106509124986
100.10684917807
100.109379836971
100.112812356893
100.115165770179
100.115014403303
100.108263932216
100.10733877705
100.104478422754
100.104580858055
100.104915701916
100.104761584644
100.104701079998
100.104495996721
100.102141059044
100.105543516105
100.108983746846
100.107438669099
100.104175548649
100.103156635157
100.102446407906
100.10312719849
100.103072693539
100.10230065552
100.103217633756
100.104250624964
100.107590306058
100.109197482313
100.10579728556
100.102389137902
100.10482730208
100.105041862187
100.105042897639
100.105177229028
100.104737234264
100.104635498076
100.107645905816
100.108672779745
100.10625948248
100.1094551728
100.112536134518
100.114054380976
100.111910692579
100.111673028771
100.112890604455
100.111050759769
100.108581627948
100.104326534284
100.109789966234
100.098271122161
100.087073041559
100.093079006674
100.094287553199
100.104406849981
100.099240339908
100.100288152968
100.102881171211
100.101861328627
100.101338689523
100.101480940988
100.100781997085
100.105150457345
100.105723995905
100.101562946085
100.101983733566
100.099205193938
100.098061335175
100.099054097783
100.099072848991
100.098132950911
100.099255905068
100.10200196069
100.10170602359
100.105895230996
100.105434625705
100.100955714264
100.101857537758
100.101687796112
100.1021506617
100.103166605633
100.100463723541
100.099329585474
100.104857021418
100.10515897841
100.101819901161
100.105528265216
100.111923871751
100.116913280923
100.109864726731
100.109686865801
100.114503670954
100.129843661166
100.099314050318
100.099881184501
100.084497281399
100.057675639871
100.058564360127
100.054299398146
100.054791841566
100.060937996141
100.091178456493
100.102572654337
100.099360863053
100.099045633919
100.103716562969
100.110356648885
100.092378263051
100.092967949274
100.09429989999
100.103218727789
100.098422582357
100.098420737901
100.103188390215
100.094342515128
100.093042533045
100.09250682043
100.09096525308
100.091449706948
100.09475097677
100.093001107356
100.053107988907
100.055186815236
100.056417932648
100.056185218805
100.055224075199
100.055263155088
100.057390857419
100.057780372315
100.061438487475
100.090788625848
100.085938873682
100.069593504084
100.063875429788
100.063714353077
100.060822959557
100.061771276691
100.056245417595
100.056421502186
100.058776292861
100.06248844972
100.062499137322
100.058795977676
100.05642204271
100.061582642203
100.060681260526
100.054363620787
100.055244955738
100.061647661435
100.062075180433
100.061196744112
100.060881317307
100.061793105856
100.061640486684
100.0607625077
100.061862597293
100.06193626354
100.062606294317
100.062763424895
100.062133841247
100.057421373341
100.058225414182
100.058218901142
100.05747640588
100.056416246724
100.057543821722
100.057165750961
100.060642444089
100.061799459301
100.062565024177
100.062875374277
100.062196007561
100.062116367419
100.062796139225
100.062675462853
100.060531431318
100.060272399543
100.060373311373
100.060552166813
100.060648408926
100.060533767516
100.062348855681
100.061472268461
100.061458652188
100.06205722448
100.061546587947
100.060630225528
100.061786176536
100.060249904451
100.060155986303
100.060362840281
100.060463411642
100.06026710716
100.0602935314
100.060542165496
100.058119550002
100.058146280717
100.058050908522
100.058138876422
100.058198217659
100.058284441449
100.058262863029
100.05825319178
100.060511109274
100.062316477114
100.062629393232
100.062435840286
100.060415813515
100.058097903777
100.058042373311
100.057949841857
100.058007550781
100.05802971956
100.057975974426
100.058018501395
100.056061189183
100.056183629848
100.056176089848
100.056022814044
100.056101046404
100.056230200857
100.056361296589
100.056356071411
100.056357059172
100.056359325312
100.058245900389
100.060570485496
100.060993536524
100.058481103459
100.056653438879
100.056189064149
100.056074958932
100.056031936879
100.056173703821
100.056193259058
100.056059698262
100.054121795259
100.054032644707
100.054322224063
100.054259168564
100.053968776233
100.054049880237
100.054374588694
100.054620345446
100.054601603339
100.054618035717
100.054694037998
100.054443484706
100.054148172498
100.054154889282
100.054457844231
100.054478613418
100.052289656779
100.051593764848
100.051377778528
100.051931863693
100.051928021922
100.051372541709
100.051425883014
100.052043099585
100.052478479739
100.052457945396
100.052519682005
100.052668921868
100.052272497305
100.051700696668
100.05178550447
100.052331683553
100.05016419938
100.050006607531
100.048510483489
100.048016496967
100.049256966682
100.049410577563
100.049083487236
100.04917463983
100.049578574034
100.050350936826
100.05003689347
100.050185292584
100.050750796563
100.050098342148
100.049789584281
100.049836551645
100.04541925991
100.040146272545
100.039110832046
100.041686570131
100.041503550748
100.039358265278
100.039372739646
100.044254638805
100.045177147644
100.041832425247
100.044562361975
100.046077494503
100.046361418542
100.045367307879
100.042821762582
100.046318559157
100.068149455974
100.067936340448
100.069563471806
100.072448364081
100.080535390152
100.070349748891
100.070236354127
100.079855855448
100.077629918676
100.070353348275
100.077112798858
100.089103023826
100.087154607825
100.075759378301
100.067055902385
100.066247416836
100.063235645329
100.068265997641
100.070958265344
100.07642251971
100.070862206058
100.063823220704
100.063167260715
100.060094523356
100.054666026501
100.053267218816
100.05694565668
100.059689121256
100.059984964198
100.063050720115
100.076523926289
100.070268117882
100.074601069659
100.068552053291
100.069737318003
100.064413692675
100.075837979997
100.074659902711
100.073674677469
100.079312347523
100.09979048918
100.137086112868
100.181119805906
100.232780529442
100.283083439832
100.337252320735
100.379178008943
100.411060156583
100.445671043083
100.470082662364
100.4776501609
100.490525995695
100.463241299775
100.46642203726
100.466945399283
100.46646887302
100.468477476795
100.467391097701
100.464061357246
100.469662438246
100.468000274781
100.468448273031
100.47071438055
100.469960495716
100.470229863879
100.470405533542
100.463612558508
100.436588909164
100.447514927673
100.46155377286
100.459740698799
100.450211075835
100.436129679667
100.434408466884
100.443209972923
100.437832183758
100.41079308517
100.417751847256
100.429548954215
100.430997404123
100.419174652322
100.416623907387
100.42784201484
100.437606801826
100.435334490585
100.448344151975
100.399385632529
100.406368220725
100.410072462153
100.410494371797
100.407198881628
100.399523916423
100.401749066454
100.402223396486
100.395629550383
100.387332379764
100.394171054108
100.400625015704
100.401628974377
100.394696994448
100.386417255066
100.391280422705
100.399648388473
100.402133986812
100.451426079331
100.447528108534
100.389438526047
100.39145438347
100.387509894327
100.388242186765
100.391153704453
100.38537024171
100.384037623943
100.39085705969
100.388202384607
100.384219885215
100.389664409443
100.389087923924
100.391715277438
100.389094300423
100.38690814356
100.396832927179
100.425910581425
100.454040891403
100.46452171223
100.474557883467
100.470179101483
100.47212898725
100.475302764333
100.479361742124
100.481939503319
100.486205392651
100.481520279875
100.485609274449
100.488848298392
100.489897886959
100.485139257
100.500542743204
100.482517562492
100.468617542427
100.465810472959
100.477838224737
100.471678950301
100.46617180477
100.462973553266
100.454445659858
100.446253372842
100.463004143385
100.47815002008
100.47982615847
100.469745063374
100.4388669212
100.435473106883
100.43293114318
100.428468611087
100.424402915758
100.4288272184
100.427304218622
100.4156583479
100.420984169158
100.428534105056
100.420042284884
100.423005666303
100.423152817001
100.421695668593
100.412926738194
100.413982259687
100.41942927811
100.418308820222
100.423378256539
100.413360164295
100.407318189561
100.420368555855
100.428448201336
100.441281324376
100.449883975519
100.450660363233
100.443381270511
100.433742482796
100.432937956723
100.468207100083
100.499899842939
100.483755839027
100.506331034609
100.523698481258
100.482844327486
100.460603277583
100.452608600243
100.464912141869
100.473124092988
100.481652180284
100.519479351115
100.508901488317
100.498407583604
100.476235016521
100.482053993335
100.473059913236
100.470649278725
100.473827277716
100.471502157679
100.485313700935
100.467578921985
100.47331274016
100.472034877087
100.473680905699
100.47657111632
100.484077445719
100.491396645553
100.493122443716
100.478276614302
100.473782049192
100.47345259168
100.482684569348
100.479277427646
100.451453029381
100.419698126835
100.414007560587
100.421701398528
100.424899231784
100.422132954305
100.410944853664
100.400194882926
100.39098899539
100.406324518901
100.391543910281
100.386941206304
100.400434054131
100.399217178361
100.408104496765
100.403058867911
100.385207246621
100.380609350396
100.40198834255
100.416226883829
100.413197376553
100.411220587875
100.399118931655
100.444483138548
100.447600090955
100.451889058492
100.406114770258
100.416411972754
100.428158348173
100.425072213497
100.420487610884
100.420215640023
100.438400169895
100.455496277635
100.469297664956
100.46180131507
100.417075704781
100.421609652637
100.412157012268
100.42172133635
100.425081320082
100.416009013878
100.402845227848
100.397705187625
100.391475376696
100.401267486813
100.419008155012
100.411617684531
100.429198429884
100.460502782392
100.494898177599
100.492673994908
100.482090281045
100.482682411813
100.478383800908
100.489776981968
100.493393508713
100.479090291838
100.479497618744
100.471722836424
100.499881950163
100.496054132699
100.493877232435
100.489830954527
100.476495376534
100.478532556112
100.49164534469
100.488631842964
100.48284237102
100.481993864722
100.482659161338
100.480581758282
100.487826163567
100.47108142874
100.474436207568
100.452607189824
100.439792578209
100.438992116898
100.442855800169
100.455565120504
100.43725281061
100.439200049038
100.435978375158
100.431654410383
100.429840592372
100.432722327801
100.463906930488
100.465375754809
100.465409074165
100.468040154896
100.46395838163
100.466272813899
100.467619374341
100.466190856765
100.464715239838
100.465172236929
100.466493302137
100.466695817314
100.466591985738
100.467004801431
100.466979247664
100.466807559669
100.466516238273
100.466766423691
100.466849895283
100.466731962417
100.466362404602
100.466202499792
100.46609983168
100.466348238498
100.466775673629
100.466750508734
100.466499758663
100.46684420135
100.466918782554
100.466892561046
100.466949410049
100.467004789067
100.466895680289
100.466873633569
100.466708343882
100.466754310684
100.466623791723
100.466347275743
100.466248014148
100.466219543633
100.466367411838
100.466220402382
100.466252095183
100.466394869626
100.466333923939
100.46620912329
100.466124262271
100.466501856784
100.465208892057
100.467610264444
100.464545605008
100.465934003709
100.463332519716
100.465939621864
100.468316994774
100.468766170507
100.471372411482
100.471905007293
100.473785253735
100.473792591048
100.47405487744
100.475120237144
100.475535192442
100.47588663134
100.476650838624
100.47658323325
100.477277840315
100.476845039596
100.476644810397
100.476658769936
100.476279024514
100.475580629028
100.475465006001
100.475277273906
100.474719314595
100.473613692089
100.472890363335
100.471565897338
100.470081203193
100.467188831757
100.464464614664
100.464900948605
100.467480305121
100.470023751023
100.473505192167
100.473387484981
100.470120112408
100.468150696896
100.466106320111
100.464160193634
100.463415842371
100.46151237109
100.460813309592
100.461306609917
100.464714888788
100.466117015378
100.46836344554
100.471247537339
100.47257130605
100.473178190288
100.472587977634
100.474600839918
100.475396547265
100.476305680679
100.477056695493
100.47719463271
100.478144549078
100.477837305881
100.478270070502
100.478403198723
100.47836357944
100.478492702778
100.478242335491
100.477261516684
100.477397539458
100.476661775869
100.476243285953
100.47601340613
100.474773348319
100.475392819246
100.475294099002
100.475233055237
100.47635583187
100.476490223595
100.476909680937
100.477232537415
100.4769989204
100.477505984992
100.477594923874
100.477891684953
100.477150279376
100.476988547149
100.475971256757
100.474594515059
100.477126092016
100.476974138032
100.474784835034
100.472079291888
100.468123679552
100.466512204802
100.464358484766
100.460369027608
100.457980898633
100.459519271928
100.460158304385
100.459766369075
100.467076762136
100.468761054707
100.472669261099
100.476301734806
100.474559424657
100.475718602897
100.47769894438
100.477630349009
100.476949239024
100.478408082232
100.479296693784
100.478644508963
100.479235708883
100.479293828164
100.478753961636
100.479499005545
100.478704749883
100.478447172304
100.478803723861
100.477161371525
100.476204999995
100.476349180826
100.476141266214
100.475741074496
100.474904524691
100.475858827002
100.475148956266
100.474539694031
100.473461306916
100.47309227985
100.470287676869
100.466307427276
100.46823817891
100.46235732475
100.462500894382
100.463834864084
100.46557517516
100.465624337654
100.466067404294
100.466376126309
100.466638031192
100.466179373068
100.466081728694
100.466303814513
100.46584536965
100.465641848349
100.464882198141
100.464860774065
100.463344504133
100.462954473398
100.460973513981
100.463172048191
100.462693747027
100.463960318577
100.468116306042
100.466228282624
100.469993656877
100.473642742553
100.473973690576
100.473618105772
100.473167391854
100.471085820983
100.469294578872
100.47034453389
100.471168828763
100.468393668911
100.464772063555
100.466511216533
100.46216397583
100.465835977025
100.463916502571
100.466174322468
100.46504592674
100.465660490409
100.465988431603
100.465423642065
100.465553951827
100.466034963006
100.466404062083
100.466624776285
100.466872246692
100.466893049287
100.466987566201
100.466997628033
100.466944815072
100.466904169613
100.46684076986
100.466871526726
100.46681380733
100.467014739442
100.46705758508
100.467134560774
100.467218875266
100.467151190791
100.46706749904
100.466967480393
100.466889657834
100.466705267704
100.466386347534
100.466233966458
100.466114644819
100.466147430556
100.465899916124
100.465896102026
100.465945375506
100.466092638704
100.465997853666
100.465541794642
100.465692161037
100.464074928583
100.466508396185
100.463726521199
100.465781370275
100.46599645373
100.466576725423
100.466947567519
100.466813219604
100.466755805863
100.466857586632
100.466965718739
100.466937307307
100.466786531185
100.466945236809
100.466918803857
100.467021372386
100.467043201508
100.467152540844
100.467145573122
100.467210755269
100.467319928659
100.467293813865
100.467244482359
100.467150159716
100.467016601974
100.46681166376
100.46658115393
100.466280767916
100.466089381468
100.466050760058
100.465717068249
100.465680162181
100.465775704034
100.465938144171
100.466082266473
100.466231711136
100.465666646414
100.46547605367
100.464940287122
100.464638980732
100.463786395053
100.462603228795
100.46254585808
100.461498628836
100.462451861702
100.462701664228
100.46277199282
100.462632977773
100.460368729879
100.461631272477
100.457442903368
100.460473959843
100.465558423564
100.469899062617
100.471926681756
100.47434580661
100.475188209325
100.476408685135
100.477705657986
100.479895437192
100.479008873257
100.480341788791
100.479673503257
100.480163609984
100.479240875112
100.478689646036
100.475042809814
100.469891830387
100.463823577549
100.459782921905
100.45689131601
100.45236024796
100.451008198365
100.444167656624
100.437873434965
100.427365112372
100.415089237524
100.44013932922
100.443835093379
100.445633116708
100.450005716244
100.458260325711
100.465685049262
100.460506375094
100.473657175387
100.477360717037
100.475013416356
100.479221037247
100.477005074402
100.476471444503
100.479681687019
100.476468784373
100.473075785245
100.476672919897
100.471204413039
100.471421818652
100.466531214897
100.473787279013
100.465689897782
100.46625428374
100.462143876454
100.457739202133
100.454630150057
100.454933377935
100.461171403289
100.461493745906
100.462632823269
100.46325153303
100.463347292819
100.462633962355
100.462635901731
100.463774154495
100.463504536726
100.462256731856
100.462019937267
100.456194270721
100.449063791428
100.44306547646
100.435147116477
100.42550033084
100.425295459364
100.430269127782
100.443218039215
100.44297910697
100.453633045626
100.452099062224
100.452244124029
100.452163808627
100.453644193669
100.456777413872
100.456334576183
100.460906476249
100.435658938629
100.419925461199
100.413445419637
100.41621021499
100.43055355472
100.427354784691
100.404733670712
100.394900760832
100.400391203077
100.369869269309
100.364309153173
100.36123645015
100.363285651646
100.348304547075
100.333386553264
100.305617377274
100.291559709179
100.330941344687
100.324424358544
100.329362681001
100.344307548527
100.376205550363
100.390171226954
100.382523813194
100.415249534786
100.435895080235
100.436604948408
100.434417983625
100.432674450751
100.428179566633
100.414537832307
100.439592951514
100.416508548125
100.422568569484
100.409974094968
100.405367556483
100.404120737105
100.407098936367
100.432346534795
100.434952255431
100.44421600031
100.45675751436
100.454854184402
100.443650901458
100.429800137112
100.407380081888
100.388979167741
100.360574781818
100.341805587976
100.336595848851
100.337662912271
100.348152972516
100.370419674373
100.363197230788
100.376851231103
100.367828254542
100.372451459633
100.37243735201
100.372645851937
100.378471042598
100.334344470348
100.317729752634
100.326129969888
100.36213482522
100.403670835849
100.433723853646
100.455298242397
100.468338172241
100.472031997435
100.475055617015
100.47517468675
100.478096709163
100.488417563064
100.528551561978
100.509682946162
100.509241665766
100.51113041585
100.504231529795
100.508972375206
100.511212424999
100.529802442577
100.514956672926
100.508750383858
100.501848996508
100.467732338404
100.450852091494
100.451903259323
100.45821885246
100.476969005981
100.464878937529
100.459329916319
100.4545880106
100.447472787343
100.451061084658
100.458080088657
100.461186290153
100.458176191248
100.457316191919
100.464446337947
100.468678630737
100.469956857271
100.480096192298
100.454287322777
100.450336283117
100.442316866019
100.430134915145
100.430716922904
100.447809270347
100.433185539068
100.432741205978
100.424238377645
100.420876009694
100.426967246158
100.43129910788
100.472074743234
100.472050996522
100.46617114967
100.463710648699
100.449380298815
100.456456945261
100.454560094062
100.454576415673
100.453290862266
100.456018284217
100.455763647492
100.455594785004
100.45519828521
100.456623396272
100.45616323174
100.45576794897
100.45360206977
100.452254568602
100.451086046226
100.450276267149
100.449697070307
100.449790161561
100.450111521184
100.450581774694
100.454266484579
100.457530996131
100.459996427049
100.460919155696
100.459848179482
100.458891400098
100.459160188277
100.458949053356
100.456405510097
100.455455641954
100.45519691787
100.455586824127
100.455574121982
100.456163364695
100.457166356384
100.456782796246
100.457353658415
100.458142059729
100.45769857793
100.45749136668
100.457961735157
100.457969983736
100.458367247726
100.458849166604
100.458749267086
100.459294788938
100.45980533322
100.460968725899
100.459439198033
100.461121794151
100.461330736797
100.46148499963
100.459645597897
100.460003155499
100.459263887662
100.459198309168
100.458877969434
100.459076141534
100.45974270452
100.460080744137
100.461260874146
100.462193049292
100.462990930433
100.460621214002
100.460358877114
100.459050673675
100.456979376669
100.455319180066
100.452704248098
100.451492005823
100.451624129952
100.452760370755
100.455085542767
100.458105653607
100.46030857011
100.462532027458
100.463968152908
100.468359123041
100.466533792882
100.463962590266
100.461368608051
100.460452080983
100.45983001208
100.45897850126
100.458595210697
100.458973835281
100.459394178135
100.460672441415
100.462241098517
100.466894880518
100.47000254356
100.462953070839
100.460595344004
100.459191902375
100.458716059574
100.457466645318
100.456566849113
100.455794991532
100.455468634094
100.455309148157
100.455844983662
100.456239290271
100.456394649684
100.456978292196
100.458167621791
100.458997955088
100.460425119151
100.462318741475
100.466184262402
100.466475510823
100.470217864078
100.473138177324
100.475493376245
100.474226833047
100.472559325966
100.46585732467
100.463782221644
100.462765764815
100.458427433444
100.455197734291
100.453174494778
100.450442919208
100.449907208197
100.449520672375
100.449172178611
100.448938867681
100.448971964456
100.449056976142
100.44902878546
100.44921057775
100.449423774205
100.450048321463
100.450781216579
100.451583828958
100.452336412543
100.452894669602
100.452048724775
100.45105229921
100.450057569285
100.449925625412
100.448989598176
100.448424751586
100.448125300838
100.44808219091
100.44827189214
100.448732099113
100.449216333622
100.450323773662
100.452518632648
100.457129664481
100.461584506052
100.465090154816
100.469772907674
100.473957759685
100.471323902365
100.469332064225
100.46584301397
100.465278382807
100.4618790113
100.459524386407
100.458606445142
100.458000889482
100.457344303313
100.456392876291
100.455908731961
100.45541784274
100.455826183281
100.455710080387
100.456306312408
100.4568762014
100.456521906119
100.457134540698
100.457992820124
100.458669821362
100.459835772538
100.460353522763
100.461994832119
100.464142922737
100.463576676379
100.465937167128
100.466563339114
100.465517839824
100.46844352544
100.467740177583
100.468587964077
100.466559855733
100.463375401732
100.459239917634
100.456610832958
100.454156239037
100.450650964865
100.449169802876
100.448492944029
100.448946248301
100.448407936094
100.449634253461
100.449905450531
100.451464690836
100.452510672579
100.45132155068
100.452504642197
100.453492928234
100.45468635267
100.453803781786
100.454419269703
100.454738682501
100.455760509747
100.456209356089
100.455363981519
100.454677371565
100.455556831982
100.456243897768
100.456938332157
100.457243750123
100.456652022305
100.456371158242
100.45624392934
100.456319179953
100.456093646445
100.453584001806
100.452755064825
100.451660859556
100.451120946916
100.450635781766
100.450514657491
100.450679237621
100.450892003072
100.454164178172
100.457418870733
100.459873992629
100.461674775477
100.461081512992
100.460361666032
100.461251512063
100.461487720572
100.46371097255
100.466810311978
100.468617237887
100.467247635023
100.46323624578
100.460776799283
100.45947616176
100.458540262989
100.458415896218
100.459782199357
100.462001008248
100.465012807074
100.460737810491
100.45767778696
100.458264341199
100.457828666529
100.456625502899
100.45620307324
100.456070166752
100.455864248406
100.456433190445
100.45772206576
100.456420926914
100.455248440471
100.455040375461
100.455359985555
100.455689912685
100.455705813228
100.455662580079
100.455524371358
100.455309126447
100.454919124525
100.454192889079
100.453715641222
100.453519539973
100.453776088421
100.455724832595
100.458744302757
100.460779005026
100.462645013331
100.46274377251
100.464664066572
100.466889790671
100.46771489183
100.468294793436
100.468670501311
100.469875836555
100.469362177376
100.46674989791
100.464388272486
100.462937845172
100.462037253485
100.461931240081
100.463524705833
100.465772959656
100.46872747224
100.469687717469
100.47175470758
100.469117199833
100.465986937329
100.466789793397
100.467584910365
100.468425382777
100.468072989141
100.468370966745
100.468098959164
100.466756319512
100.466376670844
100.465294406944
100.464506770305
100.464206243972
100.464209869409
100.463853814959
100.463480762619
100.463414000483
100.464081075224
100.464929144904
100.466398626969
100.46692004252
100.465633809403
100.464505627631
100.464372160884
100.466222389051
100.466240116836
100.466732852477
100.467149770817
100.466773771554
100.466592110043
100.466020140142
100.465599606986
100.465233845756
100.465119231242
100.464973601879
100.46533300006
100.465720215881
100.466476682984
100.46644106913
100.465847907815
100.468823951252
100.468173901794
100.46757706054
100.466266237835
100.466344382128
100.466156149572
100.465939395415
100.465645181404
100.465969958304
100.46617223187
100.466520251106
100.466457321055
100.466719859751
100.466543187127
100.466362824742
100.46614382794
100.466083393691
100.465283735126
100.465196418886
100.46527874662
100.465492606099
100.465298655145
100.465079986494
100.465115600261
100.46471289674
100.46473786953
100.464431327555
100.464311522206
100.464626598546
100.463640356363
100.463936991624
100.463694951018
100.46329422933
100.463034390998
100.462788986538
100.463336338965
100.462915542054
100.46270417813
100.461294499916
100.461993953779
100.461608315191
100.461222338637
100.460949130648
100.460585210178
100.460358883951
100.461470658862
100.462850864299
100.465338653316
100.46702518201
100.463996952819
100.461748504095
100.461959254565
100.465561197174
100.465308313488
100.470212605415
100.469841625461
100.468898722967
100.466714569344
100.465668007758
100.465140958574
100.468222885623
100.470609519724
100.469815667012
100.468359510409
100.467696234279
100.467305729834
100.466159558633
100.465781760219
100.464952885036
100.465773950612
100.465647290674
100.465494838236
100.464488523717
100.464138049513
100.464293785221
100.46458512242
100.465014091011
100.464689391571
100.464661363949
100.464791969453
100.464864079757
100.464710582517
100.464150154159
100.464130254877
100.464452438756
100.463851566247
100.463284620535
100.463801958736
100.463671879381
100.462799775759
100.462482771124
100.46253165966
100.462816621864
100.461990942379
100.463021752875
100.462871618023
100.462829734159
100.461964993975
100.462313351325
100.462632659662
100.465698343181
100.465564939443
100.466449694083
100.469301146032
100.470051698218
100.468910587169
100.468572354156
100.469669914818
100.471016868351
100.472346661767
100.471816398748
100.468506209903
100.462669358471
100.465860082057
100.477991631152
100.513865333831
100.524727041331
100.479899569801
100.43430142111
100.384266705493
100.356813706595
100.374301703544
100.371556075889
100.369052747015
100.369242569618
100.370139484787
100.371050734988
100.372216948004
100.373860405493
100.375892946616
100.378025362677
100.379885184901
100.381232434006
100.381949359216
100.380479785276
100.378660737698
100.376618303384
100.374512801649
100.3725320339
100.370816861077
100.369392534198
100.368256184694
100.36735130439
100.366592957543
100.365955758965
100.365456699714
100.365142040054
100.365105000205
100.365469064336
100.366486910806
100.368277197856
100.370517273245
100.372258289176
100.372778071062
100.372756070937
100.372794819294
100.372787710556
100.372786717437
100.372782940901
100.372787952646
100.372764116385
100.372757529494
100.372944040676
100.372985914286
100.373050426959
100.372900238603
100.372842939547
100.372777255085
100.372693839405
100.372686268611
100.372677428414
100.372663090618
100.372748352847
100.372707391127
100.372725079176
100.372728788985
100.372750032175
100.37275437856
100.372660976947
100.372673173434
100.372712891472
100.372671201837
100.37268404183
100.372654186127
100.372681510167
100.372596117208
100.372629033104
100.372603736209
100.372748048689
100.372635440168
100.372557898637
100.372319928158
100.372382912156
100.37231374721
100.372531655026
100.372486782257
100.37254406614
100.372551938587
100.372591255753
100.372567934711
100.372611997855
100.372573103266
100.372635358827
100.372589181027
100.372582445158
100.37238063226
100.371745557214
100.372368871699
100.372580890236
100.37256083738
100.372581373099
100.3725768084
100.372522953013
100.372564731436
100.372555278382
100.372530238661
100.372543643825
100.372447873952
100.37236864834
100.372290258674
100.37214668755
100.372361977133
100.372216753937
100.372394190009
100.372490907933
100.37247578543
100.372507339876
100.372533700569
100.372517353433
100.37252852549
100.372535621834
100.37250318471
100.372521198393
100.372314700254
100.371512822124
100.37233212219
100.372503295705
100.372479854459
100.372496674627
100.372492723682
100.372480618922
100.372483625133
100.372446762746
100.372384928141
100.372387743947
100.372229128879
100.372229383698
100.372349670355
100.372397977642