/*--------------------------------*- C++ -*----------------------------------*\
| =========                 |                                                 |
| \\      /  F ield         | OpenFOAM: The Open Source CFD Toolbox           |
|  \\    /   O peration     | Version:  v1612+                                |
|   \\  /    A nd           | Web:      www.OpenFOAM.com                      |
|    \\/     M anipulation  |                                                 |
\*---------------------------------------------------------------------------*/
FoamFile
{
    version     2.0;
    format      ascii;
    class       volScalarField;
    location    "0.8";
    object      p;
}
// * * * * * * * * * * * * * * * * * * * * * * * * * * * * * * * * * * * * * //

dimensions      [0 2 -2 0 0 0 0];

internalField   nonuniform List<scalar> 
79587
(
100.072037626283
100.073982312396
100.07060637109
100.07495333251
100.081994956923
100.082110702914
100.08006639529
100.080591364929
100.080704501386
100.081078805015
100.081366153037
100.081178323964
100.0830566648
100.082744725833
100.085082539462
100.085040299483
100.08172235201
100.077075449653
100.076057368959
100.076054213056
100.077044290006
100.0767610072
100.075979278027
100.077524084035
100.08393310259
100.083831493167
100.078174901472
100.076506245986
100.076479553397
100.075662548497
100.075535185983
100.076603211811
100.076514850449
100.078129804119
100.083592739646
100.083496478641
100.077322105818
100.075937552546
100.076747339885
100.076818522643
100.075915618028
100.075920542546
100.076988317707
100.0815532131
100.08469673585
100.084553331525
100.077654987977
100.077202519535
100.074915899005
100.074206906184
100.07433412545
100.074201254925
100.073608183398
100.072286193453
100.073403167101
100.07472051636
100.074819232052
100.07391236438
100.072946632298
100.07172273464
100.071393355652
100.071983805239
100.071907886698
100.071232488812
100.071734733569
100.072929978802
100.073760019918
100.074845477034
100.074921215581
100.073506245449
100.072428145814
100.07378241849
100.07427576138
100.074380498113
100.074167238805
100.074872454947
100.07741109101
100.07813321079
100.075723551696
100.078624881611
100.081539935843
100.082891330081
100.08056880658
100.080378154315
100.081770461864
100.080051643391
100.07769005174
100.073460219627
100.07873763018
100.067507399213
100.056506369061
100.06227433786
100.063369229168
100.074313966388
100.069984385116
100.070613366068
100.07293751849
100.071061829359
100.069579386966
100.068994005627
100.071713906244
100.073530570312
100.069389959401
100.068628098529
100.070827015337
100.067566062978
100.066454748312
100.067686070998
100.067687850306
100.066501104641
100.067577114362
100.070770882512
100.068502760991
100.068937738563
100.073576331768
100.072152102217
100.069283780415
100.069723801065
100.071111958226
100.072932215472
100.07051762386
100.069824756152
100.074574428084
100.074599127414
100.071580302276
100.074692272702
100.080903446
100.085591765692
100.078535674922
100.078479002147
100.083284373133
100.09922785814
100.068925601716
100.06944688224
100.053756976098
100.026772792443
100.027708744329
100.023533953781
100.023831798482
100.030117986823
100.061537993018
100.072745388906
100.068450408396
100.068190231928
100.07488177267
100.063099320231
100.063795134878
100.063629109662
100.063861656202
100.071618187545
100.067155868251
100.067138345728
100.071556065802
100.063880176826
100.063694084672
100.063830656486
100.062962374566
100.061665736865
100.063668223095
100.061626229432
100.02199460973
100.024414569458
100.025222029276
100.024857616927
100.02425161199
100.024337289846
100.025807109941
100.026413491528
100.030550519403
100.02779780027
100.028789568078
100.032305762829
100.032311890292
100.028840983666
100.027819727673
100.030365467113
100.029869431737
100.023264064229
100.024080296781
100.030652395336
100.031330334656
100.029928400833
100.029580261515
100.030853407754
100.030756923846
100.029934233633
100.030242742514
100.030397256552
100.025456331593
100.026295989418
100.02754077608
100.027498897864
100.026226425088
100.02532348786
100.026227259497
100.025560432338
100.029751106448
100.03109240676
100.03169026029
100.031849518276
100.031229680156
100.031333830699
100.031992203665
100.031869972721
100.031298916175
100.031481697268
100.031619560475
100.031638528784
100.030815495565
100.030506283535
100.030445269234
100.030695682242
100.0302445042
100.030046274241
100.031289106703
100.029552773009
100.029388070925
100.029581940882
100.029417101547
100.029711868814
100.0300341773
100.029911157343
100.029764174025
100.029543213884
100.029702662794
100.029680497145
100.029676187984
100.0295583374
100.031304172715
100.031260426795
100.031538963975
100.031441454188
100.029545677816
100.027212132372
100.027255866453
100.027160694465
100.02727079997
100.027214313415
100.027036559248
100.027062064482
100.027270521756
100.027313250194
100.02720157056
100.027333602618
100.027285380206
100.027343250471
100.027295199257
100.027273894153
100.029530874956
100.029648016611
100.027313982598
100.025368465155
100.025284917795
100.025330897118
100.025283016365
100.025402332955
100.025529030538
100.025643461326
100.025388466491
100.025151416213
100.025311310358
100.025215535497
100.025328981529
100.025291218481
100.025374533808
100.025347678535
100.025339707952
100.023587621102
100.023605185333
100.023524428365
100.023569618399
100.023539315348
100.023599429609
100.023512902221
100.023796679624
100.023672736559
100.023338646763
100.023532224904
100.023409858256
100.023508456435
100.023473254811
100.023577312089
100.023581693034
100.021708264482
100.02172081615
100.02170494736
100.021587053216
100.021627432298
100.021591720918
100.021629011657
100.021428160074
100.021121861905
100.021196030965
100.021497195362
100.021583850642
100.021472650664
100.02155098967
100.021511719456
100.021670050397
100.019376111845
100.019453156645
100.01945283278
100.019380762242
100.019193537518
100.01923798658
100.019176998735
100.019235039374
100.019257948192
100.018515905851
100.018576997509
100.019298578173
100.01919664387
100.019166941974
100.019201382718
100.019147456327
100.015750357346
100.01620896241
100.016383248344
100.016337665976
100.016115207319
100.015675584576
100.015977324468
100.015913600293
100.015728566913
100.016235260584
100.014880419696
100.014914483999
100.016303661477
100.015804393359
100.016084889701
100.016064245879
100.011421022342
100.009863591603
100.010943112691
100.011668358668
100.01154026227
100.010678414571
100.00952048099
100.011004050227
100.011146043522
100.009645445828
100.011614319817
100.008438601131
100.008495563059
100.011888348343
100.01001777458
100.011580500798
100.000478827833
99.9993918289826
99.9930046980335
99.9955124287057
99.9988365742166
99.9985459211594
99.9946691368788
99.9924236103104
99.9988004866257
99.9996158724247
99.9929758507957
99.9981991257397
99.9941350763933
99.9942872225804
99.9987125107839
99.9941689951294
100.002152438364
100.0091288692
100.006270732352
99.9984635418074
100.003898123323
100.005370702654
100.00495561636
100.002935087226
99.9971014658616
100.004847803435
100.007657763231
100.000745491551
99.998134104299
100.030827703472
100.05446395433
100.054520822762
100.031418119283
99.997048065709
99.9970898924557
100.090284054425
100.175934704099
100.114391913375
100.115141282735
100.100398454572
100.087292966501
100.074851346971
100.070281620604
100.06362750187
100.060909464301
100.071664478081
100.063494103044
100.062949371519
100.070250440857
100.059082779455
100.06159656416
100.068324605175
100.072598584261
100.085300729844
100.098338746402
100.191999793413
100.211163474916
100.212225741634
100.194129025994
100.194214694004
100.183216507132
100.206173575534
100.245221882604
100.157400015833
100.155383014944
100.204883705553
100.16786640098
100.191042898932
100.214518496012
100.155039844839
100.154371829072
100.213220333573
100.189261640698
100.165448059445
100.201883460634
100.151897349506
100.153690641366
100.202730578633
100.180339754131
100.191541585158
100.282931224093
100.329864302238
100.302303925511
100.303329759115
100.332860450789
100.304200751411
100.28628482256
100.409655932453
100.43850042451
100.395296102774
100.41189010439
100.409638178242
100.363584569642
100.305858434168
100.332974163513
100.281497999309
100.401654926559
100.434766347892
100.391241182806
100.390410919181
100.316312810475
100.315798134057
100.244723399
100.292835622765
100.378188330859
100.423539969639
100.389673353281
100.393710465823
100.328932512667
100.28080646246
100.32049193014
100.299227560195
100.302491584231
100.325316682467
100.236419708948
100.236042667936
100.325015470089
100.301320345439
100.297388547691
100.317814327172
100.27768620608
100.325868185296
100.3123168976
100.312544216288
100.32888918202
100.302027335074
100.300911471404
100.359181428405
100.407808129693
100.391659083278
100.407480794754
100.438197991114
100.439101395059
100.409811777382
100.381213067231
100.380199277471
100.455627398592
100.475534614022
100.467465997631
100.468524085652
100.468675542912
100.457586003044
100.444048921677
100.483584481068
100.481530241928
100.47897448868
100.475894574697
100.470186263338
100.467060874024
100.453059411819
100.448911951308
100.449986170497
100.455613975793
100.428936489144
100.426384313933
100.426210653739
100.433158487897
100.452796129584
100.451497674693
100.429839082035
100.388595120439
100.39550835875
100.372605299209
100.404757365796
100.391724324304
100.391299271959
100.403547218486
100.370721001234
100.393243975938
100.38588952645
100.390747442414
100.386176844321
100.386777215076
100.386881691013
100.405430358289
100.445009604863
100.449652724966
100.454981954559
100.468569605712
100.47806286492
100.475621837447
100.481593961228
100.482459475336
100.476704424789
100.475617489304
100.474558536606
100.478776608174
100.475074400066
100.477361383423
100.478115434791
100.481506556508
100.477002862616
100.480173021165
100.480358084972
100.479634876518
100.479473037733
100.480087583465
100.477262573249
100.480134766205
100.479682446148
100.47809976554
100.476146814456
100.474858354854
100.470466610237
100.470280788185
100.464327243582
100.478869046329
100.477745854361
100.474552289109
100.474186267858
100.47358307101
100.4704690976
100.469553661277
100.47368927079
100.456572336496
100.457264460505
100.460870085968
100.474951015453
100.468636073044
100.466473548475
100.463936756996
100.445764498351
100.437737892045
100.442992371914
100.427092504866
100.426854045154
100.442341403077
100.43671492437
100.443842876866
100.427266462551
100.449068819426
100.450664061958
100.430388965223
100.423286075459
100.423384261163
100.424997092391
100.446230301122
100.460438112202
100.467539908247
100.466930807363
100.473311437551
100.476948318862
100.474963653722
100.4787936651
100.476639197846
100.476805957761
100.477565229447
100.478955295086
100.478448024254
100.47873468847
100.477586758974
100.478014942594
100.477778029472
100.476404834282
100.477645227444
100.478127082162
100.477067513383
100.479316057544
100.478391982954
100.47643383227
100.476899011604
100.475938387429
100.475081495058
100.477081189975
100.477794387458
100.477630992653
100.47676779506
100.477466000404
100.476891247062
100.476125125149
100.476604171253
100.474797023068
100.475268196166
100.474509487576
100.474101677738
100.473961082406
100.474649248363
100.473905757191
100.472311258657
100.473464444013
100.474596641713
100.476413356694
100.471355803206
100.472391170809
100.47541585892
100.474144989847
100.476425881568
100.470738026534
100.432671137913
100.42953233766
100.4338500799
100.445193606934
100.445680198744
100.434184844062
100.432003360712
100.429889408894
100.427214799488
100.423855625774
100.427781819619
100.423077420433
100.429519360048
100.448522938949
100.437509554676
100.441774882535
100.453257219795
100.475406775027
100.474183369207
100.477341802171
100.465602610046
100.469151014226
100.468530327673
100.467302494244
100.457357698805
100.446237006161
100.442134501159
100.418592757227
100.426277386
100.432777577522
100.43378235527
100.426188668085
100.422481536555
100.432768022514
100.427043038415
100.424143674822
100.438786580384
100.444423862026
100.430200933271
100.429565197781
100.452720679957
100.484360088138
100.484621272106
100.472440670492
100.488811779992
100.47161265753
100.496716921939
100.479388734232
100.464616815145
100.465701878165
100.464424485901
100.46682404037
100.457035828479
100.460260818136
100.444959152849
100.426301249172
100.420675247251
100.426590543972
100.406702155085
100.415248902393
100.437075884452
100.435952681652
100.426991354021
100.423737198244
100.434139772892
100.428694806456
100.424133634618
100.436197058012
100.42287111741
100.425788480634
100.424290591012
100.428941159519
100.428243344638
100.45134843653
100.483320273421
100.483783395749
100.471232944613
100.48727025114
100.483535090048
100.438889363687
100.434804544942
100.435690550746
100.430348985116
100.439858342901
100.48473817321
100.481120555605
100.473074589066
100.486651749733
100.481021535164
100.461699217252
100.440597901662
100.460230590684
100.463256112692
100.459631170973
100.459297148463
100.459953516161
100.444779601051
100.426134447182
100.426754121788
100.426846010984
100.432593778153
100.43442876219
100.429856220041
100.436471821329
100.429201051738
100.422381830679
100.425208122834
100.434733412569
100.431138421457
100.441162623132
100.434788003944
100.431892835244
100.442308671749
100.427700912831
100.426974281974
100.421588780343
100.433444695388
100.434232719953
100.439080107289
100.437310115565
100.449463683116
100.471918622877
100.47166834363
100.474866684521
100.469323878007
100.494091087188
100.479521130839
100.428878268277
100.431636749494
100.432651154296
100.464671399839
100.462638922043
100.48385809354
100.479501861626
100.478950283645
100.462591878328
100.465670355399
100.456096517975
100.441047761055
100.418366572548
100.42021557699
100.426081413935
100.432600448904
100.434616469819
100.441790071215
100.441883899083
100.435686586623
100.43717584933
100.4519251113
100.446020788978
100.448626368476
100.447224928381
100.440396593218
100.437256838252
100.439285295755
100.435189138013
100.4449743835
100.445456622778
100.438210702331
100.438866464066
100.439587661015
100.431290862696
100.421847513402
100.421315971093
100.425859740502
100.434145224657
100.445081707726
100.465702463127
100.462780820505
100.462001432905
100.476578112759
100.479136742615
100.484341699873
100.471355073439
100.463592993209
100.461790185062
100.482939955499
100.457571046911
100.451657784965
100.460323253892
100.458682042136
100.451892023252
100.468280274778
100.468959695836
100.471142309033
100.471814253838
100.471087656474
100.472012045565
100.474148477703
100.476855023595
100.478193712297
100.478380553628
100.477591747049
100.476319868962
100.475492770595
100.475382292943
100.476310438647
100.479138834456
100.483658621004
100.494086458127
100.512998329272
100.549236643783
100.545042093707
100.483955134044
100.433729578091
100.383225138088
100.354623094696
100.375319840865
100.373354561813
100.371389620307
100.371924110028
100.372952630261
100.373942293215
100.375119163336
100.376635257358
100.378376185442
100.380103473324
100.381566681232
100.38258513897
100.383040773187
100.383025090964
100.382752127402
100.382204119246
100.381394698136
100.380348066782
100.379042083719
100.377546175843
100.375878303687
100.374042822716
100.372159149142
100.370408134553
100.368913165716
100.367746200058
100.366899847786
100.366381947656
100.366214144549
100.366393202059
100.366946544859
100.367910336982
100.369281970123
100.370908869808
100.372499932716
100.373240945611
100.373242361932
100.373161299078
100.373251379246
100.373250157752
100.373371080427
100.373681472278
100.373644344661
100.373784234792
100.373835607734
100.374148426519
100.374333819175
100.374554460976
100.374785140836
100.374798377688
100.374926649592
100.374782131174
100.374725009341
100.374622275656
100.374515365435
100.374395578895
100.374277466717
100.374107564508
100.373999087441
100.373829308616
100.373679418788
100.373521903309
100.373367561699
100.373173507919
100.373197446464
100.373120612753
100.37337850148
100.373515582131
100.37367439925
100.373817227292
100.373991419606
100.374113452262
100.374258880151
100.374387953562
100.374513820209
100.374618112939
100.374738312408
100.374876792004
100.374636237438
100.37447670233
100.37418336057
100.374015890283
100.373709191887
100.373715485774
100.373585789436
100.373620199238
100.373297931179
100.373209458413
100.37310132922
100.373148740286
100.373240343269
100.373542036976
100.373531674182
100.373643406334
100.373617230408
100.373906786348
100.374083417542
100.374397236904
100.374536773865
100.374438299248
100.374303290966
100.373956468441
100.373787361927
100.373544131683
100.373572327244
100.373474647647
100.373439376281
100.373187426008
100.373113127517
100.372970502805
100.37303410531
100.3731367742
100.373343010929
100.373402441608
100.373491804803
100.373475865153
100.373689870217
100.373824247404
100.374173738812
100.374339660848
100.374211910168
100.374048656258
100.373698660069
100.373602399086
100.373416076955
100.373393048033
100.373331758609
100.373265567526
100.373086952148
100.373008116406
100.372859106165
100.372922349078
100.373033678168
100.373183633623
100.373236375681
100.37322016151
100.373465785353
100.373475583914
100.373612421531
100.373923245721
100.374088960208
100.373966102211
100.373792687587
100.373473677826
100.373333351005
100.373293758472
100.373138902434
100.373166148315
100.373110274535
100.372986294393
100.372911383131
100.372784264619
100.372819438119
100.372934358251
100.373034469147
100.373082631884
100.3730784287
100.373181712971
100.373234670798
100.373326735245
100.373635472842
100.373819751193
100.373642330181
100.373477042881
100.373180788977
100.373139488857
100.373139532871
100.37305781654
100.373025980224
100.372996864484
100.372969325317
100.372891116794
100.372827927558
100.372709156583
100.372709077342
100.372838576932
100.3729097663
100.372938993815
100.372981328749
100.373001013654
100.373089640572
100.373124461232
100.373366329977
100.373505411437
100.373369866003
100.373242025659
100.373024128002
100.37299265152
100.37293294778
100.372914866146
100.372873047695
100.372855827313
100.372793108782
100.372729380512
100.372585036662
100.372607965434
100.372736513745
100.372797390661
100.372802724364
100.372849676222
100.372873510239
100.372923061612
100.372923231418
100.373123243999
100.373243807337
100.373058996099
100.372993340298
100.372840826898
100.372865536946
100.372799085053
100.372775322093
100.372739077636
100.372738817424
100.372686741003
100.372633547909
100.372489748501
100.372501610747
100.372618808672
100.372656342589
100.372664163972
100.372710004086
100.372730559243
100.372778815309
100.372732205126
100.372912993514
100.372953194709
100.37298252753
100.372883954357
100.372868411736
100.372801119716
100.372727655794
100.372720203566
100.372718830752
100.372641913214
100.372664486652
100.372626383975
100.372578539846
100.372569903314
100.372541686793
100.372427103348
100.372295006581
100.372218350562
100.372147574106
100.372224197273
100.372338284637
100.372400501225
100.372479303655
100.372493636707
100.372510189631
100.37256001998
100.372593397119
100.372580530428
100.372696059556
100.372691742007
100.372826561835
100.372662186649
100.372644576727
100.372688034046
100.372579860278
100.372499336093
100.372584548701
100.372476585642
100.372622659091
100.372617697892
100.37261150613
100.372503194285
100.372482099399
100.372464427608
100.372415241018
100.37238608012
100.372398993282
100.372323582865
100.372265374984
100.372138796259
100.371918514133
100.372130413315
100.372240647754
100.372266934263
100.372346116115
100.372329243322
100.372353752802
100.372386880586
100.37246404778
100.372440129805
100.37257075373
100.372551150071
100.372426310332
100.372473858144
100.372429161341
100.372444107806
100.372343854782
100.372380329986
100.372503288495
100.372324781303
100.372389891834
100.372333080351
100.372317067216
100.372276816717
100.372281523053
100.372213695036
100.372181913014
100.372062161725
100.371878540305
100.372054177457
100.37215980158
100.37217995089
100.372214898209
100.372224048041
100.372261443565
100.372277054463
100.372296100684
100.372321168136
100.372354121111
100.372345403474
100.372380713664
100.372411218913
100.372515392225
100.37246984002
100.37257697678
100.37265114156
100.372719825792
100.372772131717
100.372817763497
100.372847875594
100.372871288821
100.372887125649
100.37293388239
100.372976150048
100.373007786902
100.373051453051
100.373118903343
100.373180986857
100.373255566463
100.373350672091
100.37346803815
100.373576314169
100.373878047872
100.373999832125
100.374322566001
100.374402184653
100.374662564414
100.374856194337
100.374837982297
100.37501690236
100.374905274947
100.374777045206
100.374763521471
100.374496453236
100.374362165372
100.374298179731
100.374143106773
100.374026216206
100.373911460043
100.373796830308
100.373650392621
100.373532942802
100.373412823327
100.373289949122
100.373116446228
100.373013510146
100.372882714722
100.372993148419
100.372951824372
100.373211022103
100.373380613305
100.373536538675
100.373638975758
100.373774791036
100.373937944268
100.374059424561
100.37416106528
100.374290601907
100.374430833977
100.374528860771
100.374604810827
100.374765882269
100.374943599515
100.374996190633
100.374842694586
100.374617458914
100.374224864842
100.37373566337
100.37388264925
100.373996546003
100.37438699601
100.374724982183
100.374911894551
100.375031112367
100.374954141354
100.374823375425
100.374614240217
100.374321274113
100.373882321715
100.373805973184
100.373728452676
100.373514382245
100.373349558439
100.372987795876
100.372806756678
100.372673209914
100.372528576084
100.372417020313
100.372258310448
100.372148974377
100.372028488134
100.371908700913
100.371750305469
100.371976644405
100.372260446364
100.372453548448
100.372537513587
100.372665183018
100.372798029287
100.372948457269
100.373040840012
100.373185518775
100.373304865136
100.373480242175
100.373880003662
100.373895098715
100.374090537982
100.374250578819
100.374598097677
100.374340978851
100.374294065394
100.374478288993
100.374278332757
100.374004327504
100.373374985501
100.373190443557
100.373438217621
100.373740858442
100.373714143813
100.373765512015
100.373929256993
100.374046668412
100.374149894934
100.374436260626
100.374757283257
100.374933071616
100.37503771583
100.374989820916
100.374843637801
100.374561539638
100.37427123178
100.37416378153
100.373904991517
100.373545013365
100.37306131091
100.372985180506
100.372816256032
100.372553080117
100.372339658622
100.37218992746
100.372020439885
100.371820863777
100.371637821888
100.371465870581
100.371365384767
100.371197054939
100.371048205702
100.370841971488
100.370696709997
100.370576056788
100.37050497122
100.370305368712
100.37012843707
100.370272647934
100.37065786862
100.370882229668
100.371006962846
100.370992954805
100.371101755525
100.371219414175
100.371393935149
100.371521137155
100.371686861226
100.371802483555
100.371958441514
100.372111833988
100.372337344818
100.372616459576
100.372763699633
100.37315314235
100.373172589089
100.373366395769
100.37311819597
100.373442249894
100.373742852784
100.373788118669
100.373791653645
100.373347728426
100.373308742009
100.373421633202
100.3734436113
100.373686340071
100.373910142527
100.373881748843
100.374077470108
100.374088393635
100.374240705214
100.374478084983
100.37480673655
100.374957957337
100.375070351356
100.37498338993
100.37499812253
100.374919970229
100.374695198021
100.374355103879
100.373970669139
100.373607910118
100.37315224767
100.372648048224
100.372443782088
100.372359277553
100.372150755449
100.372040362161
100.371898682807
100.371744198328
100.371601747409
100.371491671798
100.371252355407
100.37121457223
100.371020895395
100.370835000141
100.370689353051
100.370440400148
100.370217169671
100.37000068319
100.369858208676
100.369673548238
100.369881868593
100.370148638449
100.370381089834
100.370592709655
100.370817030998
100.370910962686
100.371077415591
100.371258729767
100.371464446272
100.371553569111
100.371728487226
100.371913283227
100.372133161354
100.372265893951
100.372528493708
100.372495972155
100.372203814209
100.372488803973
100.372664323721
100.372942401053
100.372861782001
100.372965080321
100.374200357365
100.373983321009
100.373856888953
100.373353288267
100.373245823484
100.373573995595
100.373632071654
100.373968649076
100.373907021908
100.374078085028
100.374108752596
100.374499074406
100.374707696434
100.37499542725
100.375136921837
100.375040610543
100.375124416173
100.375025634338
100.374944538524
100.374696648095
100.374415506788
100.373959433844
100.373644082498
100.373438283918
100.373176471992
100.372897223932
100.372585972532
100.372242069336
100.372239910968
100.372155657502
100.372021399801
100.372083623689
100.371889907777
100.371759345276
100.37167927144
100.371552943456
100.371724132154
100.371512121907
100.371305587763
100.371162536616
100.37098758974
100.370791119385
100.370519740634
100.370265389828
100.370016668588
100.369745077092
100.369418852003
100.369070206438
100.368735677291
100.368276777877
100.368539434673
100.368964652491
100.369340352421
100.36954639164
100.369762132332
100.370008270207
100.37025224232
100.37052566205
100.370689533285
100.370862109074
100.371061166396
100.371358439774
100.371535990499
100.37146856494
100.371505917465
100.371640970523
100.371781234607
100.372042162297
100.372121858299
100.372107814078
100.371930486504
100.371856298269
100.371904174025
100.371922596366
100.371907036357
100.373213917402
100.370420206466
100.369271877625
100.368769647302
100.367926938817
100.367184052451
100.366646284775
100.366244714258
100.365984357042
100.365658919868
100.365113416011
100.364318618354
100.361361869194
100.358464484861
100.363796740455
100.364178271078
100.364917743607
100.365914577204
100.367344146601
100.368275114451
100.369002985171
100.369547660316
100.369990799056
100.370369101215
100.370581351155
100.370854831274
100.371453928246
100.370112763013
100.372037029574
100.369386756896
100.373081823705
100.372987289315
100.373228394769
100.373205345771
100.373339665335
100.373510126707
100.373812950433
100.373821064064
100.373312958585
100.372375456767
100.371174365969
100.369484794717
100.367907048519
100.36681889029
100.369692361314
100.371685920708
100.368586247377
100.364619504796
100.361873638109
100.360544443286
100.350670789823
100.354757421684
100.352411511897
100.356225946412
100.356680269937
100.358653298841
100.362124027019
100.361217791128
100.358548631886
100.359538000805
100.356636866683
100.358440702024
100.360173524612
100.360889119999
100.361814447264
100.363174774063
100.362803280472
100.365895630604
100.367736031194
100.369316648682
100.37116086123
100.371981204728
100.372118074761
100.372203294712
100.372141585586
100.372593147614
100.372764040696
100.372912850905
100.373031920121
100.373185692112
100.37334531856
100.373499810846
100.373655720643
100.373530612021
100.373274135795
100.373451836358
100.373381728068
100.373546017077
100.373771986554
100.373496049321
100.373597908048
100.373875835902
100.373986567309
100.373939913872
100.374026514001
100.37435957207
100.374579796805
100.374862231504
100.375000513678
100.375116569969
100.375143641739
100.374950648006
100.374721411263
100.374401210875
100.374496002819
100.37464640807
100.374942269092
100.375079914203
100.375133712357
100.375113905538
100.374963204644
100.374764361702
100.374688534807
100.37463585441
100.374419947508
100.374131883331
100.373726430744
100.373209483894
100.372979892461
100.372815108243
100.372650220399
100.372459501077
100.372354845305
100.372196073163
100.372396205882
100.372302451563
100.37249416039
100.372427388533
100.372320437441
100.372172296826
100.372356762411
100.372218419163
100.372123988851
100.371989697416
100.371849680008
100.37168259065
100.371491777919
100.371613188838
100.371386062063
100.371186097612
100.370977346996
100.370741664487
100.370468740699
100.37019985357
100.369700692052
100.369946726261
100.370278540542
100.370540658173
100.370773980772
100.371002381341
100.371216622174
100.371443032183
100.371249716625
100.37128857769
100.371471431896
100.371656637276
100.371878690817
100.371993406707
100.372158200239
100.371940284807
100.37200630163
100.372189818781
100.372271765999
100.372183693185
100.372115680613
100.371931480261
100.371666297623
100.371264808203
100.371251302759
100.371354778629
100.371713228095
100.371986020749
100.372477637882
100.372920716525
100.373261934083
100.373552125297
100.373786865701
100.373575207647
100.37360534794
100.373779149762
100.374062421817
100.374007103663
100.37418626083
100.374285913029
100.37459593994
100.374990259128
100.374904363366
100.37502862962
100.375048362216
100.374921181228
100.374910821339
100.374819773578
100.374562934762
100.374256989339
100.374100790648
100.373802359608
100.373371649818
100.373075943124
100.372655300061
100.372544579299
100.37243254641
100.372416829276
100.372387303652
100.372482502649
100.372420852124
100.372681651085
100.372563976305
100.372771509495
100.372676372851
100.372664023558
100.372478478967
100.37259464368
100.37246573598
100.372382164256
100.372305104642
100.372211509666
100.372010704332
100.371999743502
100.371834708691
100.371655653019
100.371450087273
100.371246231042
100.37103480706
100.370775800793
100.370493866786
100.370198888449
100.369876153882
100.369489051386
100.369116961901
100.369468140293
100.369845573472
100.370035624014
100.37034707216
100.370637858124
100.370892379395
100.371110785157
100.371334199483
100.371553599875
100.371812615024
100.371993271573
100.371869977095
100.371960441669
100.372083489521
100.37216236038
100.372283893064
100.372492564237
100.372346952081
100.372354456161
100.372427062246
100.372594345221
100.37242642556
100.372405224634
100.372107880529
100.371568162359
100.371350540848