/*--------------------------------*- C++ -*----------------------------------*\
| =========                 |                                                 |
| \\      /  F ield         | OpenFOAM: The Open Source CFD Toolbox           |
|  \\    /   O peration     | Version:  v1612+                                |
|   \\  /    A nd           | Web:      www.OpenFOAM.com                      |
|    \\/     M anipulation  |                                                 |
\*---------------------------------------------------------------------------*/
FoamFile
{
    version     2.0;
    format      ascii;
    class       volScalarField;
    location    "2";
    object      p;
}
// * * * * * * * * * * * * * * * * * * * * * * * * * * * * * * * * * * * * * //

dimensions      [0 2 -2 0 0 0 0];

internalField   nonuniform List<scalar> 
79587
(
100.072331014383
100.074275659652
100.070899723936
100.07524669649
100.082288316997
100.082404114852
100.080359867389
100.080884887129
100.080998070896
100.08137243444
100.081659859472
100.081472080686
100.083350486014
100.08303861339
100.085376470203
100.085334278331
100.082016361885
100.077369488299
100.076351424696
100.076348268968
100.07733833393
100.077055026469
100.076273263598
100.077818030197
100.084227006669
100.084125346669
100.078468711073
100.076799988156
100.076773224413
100.07595617342
100.075828765444
100.076896740695
100.076808327243
100.078423231006
100.083886143617
100.083789847125
100.077615452873
100.076230868422
100.077040619572
100.077111777957
100.076208854796
100.076213772966
100.077281553842
100.081846467754
100.084990017289
100.084846647903
100.077948304148
100.077495769158
100.07520913001
100.074500133814
100.074627347578
100.074494483226
100.073901434365
100.072579474451
100.073696471063
100.075013850383
100.075112604203
100.074205773257
100.073240072038
100.072016227306
100.071686877126
100.072277374329
100.072201513071
100.071526174188
100.07202846262
100.073223776594
100.074053873836
100.075139380158
100.075215187844
100.07380025151
100.072722176783
100.074076475774
100.074569831085
100.074674567344
100.074461285577
100.075166490281
100.077705090905
100.078427145241
100.076017422936
100.078918707288
100.081833684323
100.083185016092
100.080862450531
100.080671730332
100.082063992925
100.080345110277
100.077983456398
100.073753618981
100.079031089192
100.067800833818
100.056799758625
100.062567503537
100.063662208452
100.074607110484
100.070277575981
100.070906563146
100.073230701735
100.071355037771
100.069872625646
100.069287276463
100.072007180597
100.073823858072
100.06968330984
100.068921485208
100.071120445062
100.067859551223
100.066748266323
100.067979631365
100.067981468684
100.066794779725
100.067870834453
100.071064690949
100.06879664984
100.069231693535
100.073870368086
100.072446156215
100.069577837422
100.070017888178
100.071406057925
100.073226322821
100.070811706269
100.070118831004
100.074868525292
100.074893121815
100.07187418944
100.074986095681
100.081197194014
100.085885458092
100.078829317016
100.078772593179
100.083577892269
100.099521404452
100.069219125689
100.069740548983
100.054050729042
100.027066574246
100.028002094021
100.023826841218
100.024124460516
100.030410591126
100.061830887384
100.073038480336
100.068743525244
100.068483400834
100.075174981814
100.063392405576
100.064088417003
100.063922459956
100.06415510101
100.071911688705
100.067449415347
100.067431959443
100.071849740557
100.064173840642
100.063988016997
100.064124786642
100.063256742341
100.061960174211
100.063962540246
100.061920290529
100.022288986707
100.024709296006
100.025516030228
100.025150794801
100.024543967979
100.024629271327
100.026098969898
100.026706216022
100.030843523827
100.028091298434
100.029082949708
100.032599078096
100.032605419049
100.029134946379
100.028114102284
100.030660152133
100.030164257938
100.023558717758
100.02437562147
100.030949186807
100.031625964767
100.030222656908
100.029873089769
100.031144543745
100.031047239302
100.030224459076
100.030534539231
100.030698693179
100.025751092232
100.026589590586
100.027833617834
100.02779219564
100.026520547317
100.025618455254
100.026522835655
100.025856153121
100.030048510047
100.031392611075
100.031989513135
100.032146658686
100.031524367475
100.031625732096
100.03228150314
100.032157754757
100.031586190812
100.031770012555
100.031909895625
100.031929641231
100.031109668515
100.030798075806
100.030738212928
100.030990504303
100.030541065239
100.030343515327
100.031589119569
100.029858000956
100.02969349044
100.029885656714
100.029717174128
100.030007457172
100.030324165529
100.030197180972
100.03004708498
100.029824978162
100.029985339444
100.029964963841
100.029964013004
100.029849954467
100.031596319962
100.031554971075
100.031835832601
100.031740575688
100.029849374952
100.027523653896
100.027570618413
100.027475507782
100.027582451174
100.027519600186
100.027334236934
100.027349271804
100.027550459473
100.027587405986
100.027473350545
100.027606577757
100.027561878007
100.027626836335
100.027585632516
100.02757218976
100.029827094842
100.029948282469
100.02761964291
100.025683714689
100.025610035664
100.025661556473
100.025614102577
100.025728081799
100.025843325992
100.02594239772
100.025673082075
100.025421017294
100.02557049064
100.025470319464
100.025586339601
100.025554187028
100.025650707017
100.025635715003
100.025641399451
100.023895720679
100.02393683042
100.023872270357
100.023927277812
100.023898999198
100.023949842689
100.023844767876
100.024101538321
100.023950628344
100.023590617408
100.023765895149
100.02363502943
100.023738305719
100.023713101058
100.023841455677
100.023864655814
100.021984059353
100.022042509131
100.022061721989
100.021970487012
100.022029675033
100.022000131609
100.022020380838
100.021790256722
100.02143981953
100.021460037693
100.021717611799
100.021774883345
100.021647552585
100.021735093567
100.021713625099
100.021910939576
100.019573493125
100.019716258694
100.019796416542
100.019777759233
100.019643764229
100.019718988194
100.019664206278
100.019698205422
100.019675070502
100.018850315889
100.018817801449
100.019464967044
100.019313574926
100.01925932463
100.019310443809
100.019297591528
100.015808091305
100.016334907353
100.016620591144
100.016716295103
100.016579380574
100.016227110273
100.016589330281
100.016526772624
100.016325195752
100.016751795849
100.015246477051
100.015115247613
100.016369024614
100.015787980915
100.016054394316
100.016050673752
100.011157802578
100.009761428696
100.010926379339
100.011874099954
100.011978123356
100.011241990056
100.010251356115
100.011906697005
100.012026489839
100.010478186855
100.012298962958
100.008857858805
100.008625514728
100.011787599614
100.009761199174
100.011282157702
99.9997643671297
99.9987966409732
99.9926711280797
99.9950650095574
99.9989818853391
99.9990951208132
99.9953599740698
99.9933945271305
99.9999488097923
100.000869853024
99.9942304501156
99.9991879865564
99.9946956716918
99.9943247061316
99.9982463229908
99.9934627466796
100.000782227152
100.007792077825
100.005091462017
99.9976299103294
100.003543788652
100.005552750882
100.005729254106
100.004027564945
99.9984656027777
100.006382609868
100.009456778683
100.002643990725
99.9997542632076
100.032159266079
100.055053989522
100.05445072729
100.030699689878
99.9969084170418
99.9978369351622
100.090945432305
100.17662749335
100.115240317423
100.114746638041
100.09887675467
100.085409298362
100.072513456536
100.068143979152
100.06177554242
100.059479997475
100.071052570663
100.063614173435
100.063952167987
100.071741659338
100.060886922315
100.06369041849
100.070851081357
100.075464379197
100.087815634484
100.100463042924
100.194741241932
100.212557249106
100.211182261843
100.192036347231
100.191526303349
100.179779187362
100.202577742946
100.241472998494
100.154195564885
100.152801364511
100.202463219663
100.166022808133
100.19027663408
100.214490618434
100.155532425901
100.155724390115
100.21495694408
100.191090660365
100.167411419931
100.204141073198
100.154363165451
100.157068228821
100.206673462825
100.184394921269
100.194903803963
100.287610365365
100.334342446287
100.304045764464
100.301836411244
100.329299962195
100.300363371436
100.282567714365
100.405947707592
100.43573076275
100.391071995407
100.406770818555
100.404793559056
100.358444781183
100.30146921493
100.328386571094
100.277042704162
100.397466223799
100.431068986659
100.386293836928
100.386151242254
100.312143764411
100.311863457042
100.241223144481
100.290257955558
100.375197825581
100.420650100961
100.38573972014
100.390530521891
100.326014296173
100.278476928331
100.318542867721
100.298314724241
100.302483445656
100.326672525818
100.237508555952
100.237683004445
100.326937351224
100.303143046259
100.29925341888
100.319441652373
100.279441623859
100.327156340666
100.315046376811
100.316222632782
100.334358341448
100.307464005965
100.305792945311
100.366102351827
100.414931840278
100.397236746802
100.410945865019
100.438822728504
100.437306114098
100.406806796937
100.379637600915
100.381763590174
100.456551955661
100.476904033184
100.468489041331
100.466444576302
100.467328972893
100.454083574791
100.440139135771
100.480569272612
100.478595451901
100.476791716308
100.471742557938
100.466036248308
100.462428777601
100.448500847847
100.4442035527
100.445502697196
100.453180745577
100.424433122166
100.422875399276
100.422557516509
100.429504570047
100.45012115956
100.448380809647
100.427931317921
100.386430337867
100.394259016086
100.372213443721
100.405485264992
100.393466552668
100.393658944842
100.405892907943
100.372613766409
100.394562529819
100.387290799056
100.391480084724
100.388625504667
100.390439130718
100.392955471922
100.412587933187
100.452616857628
100.456536712044
100.460400590997
100.468847866611
100.479491023077
100.477406696003
100.481080938121
100.479777551203
100.474696426191
100.47322384954
100.475106728832
100.47956517879
100.477170375035
100.478410866342
100.47715163547
100.477888691281
100.474200606463
100.476168680773
100.473828256756
100.471712292057
100.474598139978
100.476799876326
100.473989009201
100.474482530276
100.475802956309
100.47528358572
100.47358077532
100.470382723966
100.466794969761
100.467989239529
100.459782819552
100.476328281642
100.476242331398
100.473072402338
100.472863975426
100.47631063758
100.469754760353
100.468096451499
100.472095807968
100.453954729704
100.454448229285
100.45682790803
100.471758079755
100.466216057194
100.464363804682
100.463659893529
100.445333192978
100.438560526294
100.444420631658
100.429267209824
100.429628421414
100.444880390424
100.438975044381
100.445285869327
100.427824733191
100.448091283757
100.449969923869
100.429806044793
100.424660671418
100.426334716787
100.431383357392
100.453332563097
100.468964781005
100.474659431432
100.474315275733
100.480166238341
100.483861126582
100.481184830374
100.482600543116
100.482363544164
100.478400168647
100.478718806776
100.476637100459
100.474991938656
100.476528018682
100.478189038626
100.476969165685
100.478503640578
100.478284812852
100.475371112185
100.474512113057
100.47401807816
100.47386902568
100.473443634379
100.472094362079
100.472119420029
100.471787801287
100.472746373546
100.472889525109
100.473329929485
100.475507588473
100.473948923415
100.473399480464
100.474994080045
100.474460873062
100.474954323974
100.474573803727
100.473183106084
100.47473131454
100.474676144594
100.474555201403
100.473547063057
100.474821250063
100.473897306108
100.475566488228
100.475434182046
100.477161859786
100.470975415163
100.471278197008
100.47327902683
100.472841973946
100.475390714302
100.46963388303
100.430813309584
100.42727257175
100.430615650982
100.442363383995
100.443726099764
100.433196240915
100.431355261596
100.428380274783
100.425831622764
100.421788027732
100.425560718565
100.417603844635
100.425307173459
100.444457718164
100.433190493839
100.435603956855
100.44820279711
100.47103260252
100.470988807952
100.474327179722
100.462363313365
100.465035171152
100.465579936316
100.465242899807
100.456492745208
100.446054891659
100.4428195989
100.420566109137
100.426918767171
100.433855695064
100.432203271489
100.425867022706
100.419712459016
100.431492011022
100.421045847058
100.420475130726
100.432386928421
100.437143013565
100.428395812938
100.427452547404
100.450779991482
100.482992867529
100.483639476633
100.471074891155
100.48706084779
100.468916437492
100.494007398755
100.476377177031
100.461665324024
100.463843002409
100.463452986576
100.466498638171
100.457493845479
100.461499622203
100.446685806213
100.428142057023
100.422462604857
100.428300308912
100.407158538245
100.414957540438
100.438399782267
100.435071828602
100.427280540873
100.421926282271
100.433592900158
100.423880551341
100.421558314121
100.431878243476
100.421476671699
100.423756356562
100.427703109564
100.431926685488
100.430685429817
100.453896524104
100.485112207879
100.485354627437
100.473180664285
100.489702924183
100.485457362061
100.440485853154
100.436035819351
100.435067884587
100.428972663953
100.438903644514
100.483380659383
100.479569584459
100.471664783876
100.484674814021
100.479429206417
100.460293598697
100.439778935317
100.459510729897
100.463224456918
100.460590962172
100.460854820544
100.461687921905
100.446783974035
100.428195304613
100.428807008675
100.428655285675
100.434148693426
100.435466911749
100.431539070844
100.436747158031
100.429111993558
100.421672552629
100.425848230279
100.436016097535
100.430481956568
100.442049327878
100.431353376575
100.431032626143
100.438926518533
100.426838372056
100.42891685646
100.424431931729
100.441158600196
100.444184721214
100.448738213063
100.445440111213
100.456878530508
100.478038482197
100.475924162011
100.479166589255
100.472827578036
100.497188842195
100.481596853678
100.430747959272
100.433065968871
100.431961714087
100.464148804973
100.462581749231
100.483812267633
100.479965552644
100.48033871271
100.463902846274
100.467341053009
100.458251961211
100.443366434399
100.420846388793
100.422271458041
100.428166522831
100.434321960173
100.435592057673
100.441811305322
100.441716020803
100.435165981606
100.436598771877
100.451631653957
100.445502969633
100.449145005946
100.448407587114
100.442644771285
100.437937570737
100.438242501865
100.440365636386
100.445237261107
100.44469478784
100.435299943214
100.442149719128
100.446688886531
100.435324994494
100.428485894261
100.428128333907
100.433588032688
100.441114682612
100.452018779218
100.471982821881
100.46769199806
100.465446132328
100.480072435352
100.481085732244
100.486587790487
100.473380851071
100.465126961013
100.463271916117
100.484500995941
100.458905224696
100.453871841886
100.462216027783
100.460443437739
100.453812957762
100.470170405247
100.470795515401
100.472600572723
100.472716173098
100.471047577484
100.470518428398
100.472543425744
100.475266048169
100.476692976204
100.477111520263
100.476992000114
100.476557587882
100.476482255767
100.476728528607
100.476959998295
100.478331063736
100.481387837742
100.489990269762
100.50766555786
100.542178917083
100.538312791203
100.479859952634
100.431629532225
100.383107109045
100.355621103024
100.375615696625
100.373588203751
100.371773054811
100.372302168257
100.373284700502
100.374230899388
100.375358609579
100.376806490683
100.378462367892
100.380098172
100.381475591956
100.382424439181
100.382847177719
100.382768832219
100.382436901494
100.381847767998
100.381017811976
100.379965253073
100.378690005692
100.377262094769
100.375715399615
100.374065867875
100.372390765224
100.370827598773
100.369469559605
100.368378044715
100.367577405499
100.367079093216
100.36689710707
100.367034687556
100.367529332553
100.368420034762
100.36969353251
100.371216844631
100.37273112866
100.373571292519
100.373680653657
100.373551125435
100.373596376956
100.373689754344
100.373882336142
100.374161078396
100.3741553464
100.374302920836
100.37437381297
100.374686133999
100.374881665975
100.375093943974
100.375297607332
100.375285636417
100.375377636344
100.37522955872
100.37517401992
100.375086332903
100.374998754671
100.374900627042
100.374796116948
100.374634934736
100.374524543977
100.374346728812
100.374180956436
100.374001349063
100.373810232054
100.373572248745
100.373545943107
100.373481583719
100.373802666159
100.373978307831
100.374163800516
100.374328567531
100.374516018514
100.374645771983
100.37478842168
100.374902627561
100.375007874129
100.375095238261
100.375199526538
100.375330196272
100.375157627707
100.375008906411
100.374731887524
100.374548123176
100.374238004966
100.37421119148
100.374072027455
100.374080595765
100.373769629065
100.373605193378
100.37337679288
100.373478688095
100.373660171357
100.373981955334
100.373990132175
100.374115152529
100.374125120771
100.374433089435
100.374631124444
100.374925150729
100.375065047432
100.374978441094
100.374832442539
100.374503153843
100.374302543545
100.374023001954
100.374018618821
100.373900312878
100.373850275637
100.373557093003
100.373414976584
100.37321471027
100.373286382392
100.373456687805
100.373718257611
100.373793240138
100.373908582307
100.37392499909
100.374187622459
100.374365614924
100.374711651885
100.374894818333
100.374784360248
100.374593425322
100.374229088697
100.374071781692
100.373830859221
100.373767862336
100.373685136811
100.373603983329
100.373363885997
100.373242524478
100.373087457295
100.37311714125
100.373268602944
100.373480677324
100.373549014782
100.373548222665
100.373855421206
100.373912523261
100.374125794891
100.374469377285
100.374670038426
100.374546106595
100.374330668065
100.373969528463
100.373726585727
100.373639286712
100.37342559661
100.373438049702
100.373368675446
100.373186247722
100.373095360559
100.373004698101
100.37296875481
100.373100350723
100.373257042194
100.373314252406
100.373326994731
100.373493992806
100.373573267734
100.37378259528
100.374152912608
100.374388706564
100.374188294973
100.37396006155
100.373583022366
100.373431629553
100.373418109849
100.373277495478
100.373234352845
100.37318586414
100.373156848105
100.373030626069
100.372979106184
100.37291024149
100.372844218671
100.372954986986
100.373068588516
100.373100401921
100.37315729577
100.373185009144
100.373354109081
100.373471917394
100.373812151735
100.374015038658
100.373835035762
100.373641231476
100.373302125114
100.373190178982
100.373081132047
100.373058108402
100.373006327147
100.372993597264
100.372893615649
100.372865056728
100.372785836408
100.372738554948
100.372823799589
100.372916504579
100.372907760122
100.372967881979
100.372999690302
100.373073955252
100.373133892639
100.373465375881
100.373659472144
100.373390171115
100.373261087178
100.372985930214
100.37298146729
100.372894749929
100.372864264017
100.372825754379
100.372841062386
100.372764684774
100.372764608784
100.372676122593
100.372632857888
100.37268906839
100.372732921131
100.372734023897
100.372777088962
100.3727994357
100.372852296832
100.372824363823
100.373097672991
100.373214101505
100.373251407142
100.373103628905
100.3730166057
100.372988564931
100.372831599172
100.372752261388
100.372753199966
100.372631115859
100.372699918692
100.372662421752
100.372632134528
100.372629297175
100.372604329002
100.372545156577
100.372462136019
100.372377591418
100.372234733774
100.37236420605
100.372509968853
100.372510618446
100.372540153478
100.372542215836
100.372560151952
100.372584608386
100.372610425609
100.372551766753
100.372688451409
100.372747647509
100.372952613363
100.372820961063
100.372816753004
100.372766416154
100.372580225155
100.372417914447
100.372440550706
100.372357546368
100.372617086633
100.372571687241
100.372544013641
100.37247133278
100.37248726035
100.372465383636
100.372454935093
100.372415421555
100.372462820335
100.372435749525
100.372439748138
100.372294469354
100.371904723458
100.372275070545
100.372424569086
100.372390480968
100.372411908755
100.372401883595
100.372381718234
100.372398778352
100.372441675072
100.372419212315
100.372490030846
100.372443984497
100.372276130968
100.372289176376
100.372198644001
100.372224365161
100.37211640685
100.372236698297
100.372390354942
100.372290734472
100.372345520491
100.372352029666
100.372355304694
100.372357992459
100.372366956274
100.372349109047
100.372364445587
100.372231906081
100.371777855704
100.372237845569
100.372353614195
100.372325677286
100.372320338164
100.372315226734
100.372306990916
100.372296746791
100.372252766435
100.372198741677
100.372291202828
100.372258239036
100.372282636338
100.372291019791
100.372485883043
100.372457404701
100.372548324943
100.372621992463
100.37270040859
100.372747971061
100.372794190059
100.372831501631
100.372881093959
100.37295258506
100.373052803448
100.373168073731
100.373276083635
100.373396076369
100.373534036757
100.373654758672
100.373780883597
100.373907591308
100.374039513555
100.374150129361
100.374406076093
100.374540117383
100.374879524318
100.374939210085
100.375211611459
100.375375968499
100.37534588247
100.375494044707
100.375327755961
100.375189221215
100.375148434687
100.374868823332
100.374729158519
100.374653088371
100.374494216605
100.374373927295
100.374260820779
100.37414114596
100.373989168957
100.373864987968
100.373741251695
100.373607433299
100.373432487498
100.373314145125
100.373181380059
100.373297281975
100.373286078875
100.373569187279
100.373755288513
100.373914288902
100.374018914725
100.374157477928
100.374329171917
100.374448278211
100.374547504896
100.374668336841
100.374804195655
100.374895130055
100.374978369453
100.375148520096
100.375353484022
100.375453035363
100.375315083923
100.375151158314
100.374808682604
100.37432700552
100.374460629452
100.37456476105
100.374937226686
100.375289507289
100.375454736149
100.375536555983
100.375413357466
100.375259191062
100.375027717595
100.374716405187
100.374289577241
100.374192144864
100.374094137292
100.373871979769
100.373693550441
100.373337676172
100.373132005415
100.372976360616
100.372812025473
100.372676891965
100.372494980881
100.372365166535
100.372232394324
100.372084897311
100.371931287643
100.372145566664
100.372466929937
100.372667223813
100.372758509716
100.372889298538
100.373036959261
100.373202046573
100.373308252565
100.373468950873
100.373609405476
100.373812939687
100.374213483739
100.374248036786
100.374447540561
100.374623100804
100.374989012088
100.374733641772
100.374704768194
100.374956803489
100.374816145367
100.374595217961
100.374011110183
100.373828064566
100.373987305471
100.374238919017
100.374243349047
100.374309220075
100.374468875285
100.374596437499
100.374709144136
100.374987890972
100.375333277282
100.375493802977
100.375561119312
100.375479503236
100.375313102063
100.374999471885
100.374708401417
100.374581586336
100.374328757411
100.37397873702
100.373536486823
100.373427214506
100.37323591026
100.37296781732
100.372753049107
100.372586635402
100.372399810494
100.372177507802
100.371970432209
100.371770798957
100.37164437949
100.37144930568
100.37127524889
100.371048651908
100.370877788779
100.370744577737
100.370665774402
100.370464054376
100.370290797247
100.370414974058
100.370835072528
100.371049221963
100.371161069945
100.371171091291
100.371288398865
100.371433235533
100.371626205094
100.371779120688
100.371971348835
100.372105754784
100.372285455746
100.372458847273
100.37270990893
100.372983451545
100.37314760573
100.373526485082
100.373572528308
100.373782885425
100.373538068063
100.373847016622
100.374156371127
100.374227542108
100.374283422833
100.373989805665
100.374016789123
100.373994600337
100.374017962579
100.374244396406
100.374443844124
100.374440938617
100.374626808568
100.374635060394
100.374797904978
100.375046059542
100.375391319756
100.37553576903
100.3756058885
100.375504070764
100.375487731237
100.37541506015
100.375172505695
100.374823872435
100.374432322335
100.374082760665
100.373652691884
100.373169658155
100.372966156569
100.372865796109
100.37265070588
100.372533254058
100.372371506894
100.372205282893
100.372050499326
100.371921030351
100.371663729302
100.371616087882
100.371397929826
100.371193485003
100.371033452569
100.370761962353
100.370515319064
100.37027939225
100.370118292523
100.369910409825
100.370124161743
100.37040926217
100.370659159808
100.370893718974
100.371139194225
100.371250615054
100.371437298561
100.371655570931
100.371847889807
100.3719512416
100.37214425348
100.372342981603
100.372580472226
100.372740607915
100.372996450139
100.372997177097
100.372737010362
100.372991659841
100.373151615096
100.373421165509
100.373332293199
100.373459992351
100.374734301803
100.374533690954
100.374488436792
100.374085789597
100.374025016256
100.374225790275
100.374267016058
100.374530070287
100.374507602399
100.374649622752
100.374695849114
100.375037628269
100.375259585892
100.375550576537
100.37570181767
100.375608365949
100.375646577796
100.37556374747
100.375454796462
100.375198844638
100.374906038735
100.374446503816
100.374147140846
100.373922675436
100.373701931719
100.373428916277
100.373119101191
100.372780729663
100.372769143124
100.372681716311
100.372539134917
100.37258003188
100.372380818791
100.372235067515
100.372137909078
100.371998725745
100.372138749385
100.37191583048
100.371693921388
100.371536854113
100.371344655654
100.371131388259
100.37084263469
100.370570735679
100.370309742351
100.370024845852
100.369690882546
100.369331372742
100.368980876249
100.368508137561
100.368786376489
100.369223395967
100.369613239263
100.369832035149
100.370063052023
100.370321650355
100.370584719562
100.370873180161
100.371050971517
100.371242478953
100.371460347409
100.371775936813
100.371975507146
100.371921503812
100.371964081145
100.372117858596
100.372276122293
100.372562165339
100.372644447836
100.372633762669
100.372497198421
100.372445580028
100.372482723648
100.372491860678
100.372402662123
100.373683950593
100.370758128442
100.369514449968
100.368933472354
100.368021179906
100.367263976874
100.366892382636
100.366364401652
100.366175701282
100.365969469564
100.365545848085
100.364991597085
100.362235282947
100.359950586119
100.364851868893
100.365094373287
100.3655440572
100.366556382329
100.367790533983
100.368672657569
100.369339151468
100.369843760289
100.370177238013
100.370601294147
100.370818754403
100.371159746321
100.371808073099
100.370521162445
100.372405990699
100.369729081336
100.373449007499
100.373333042122
100.373547825223
100.373463356449
100.373505836158
100.373654376335
100.373971321718
100.373953388547
100.373525528533
100.372667044976
100.371523011919
100.369949836649
100.368238580238
100.366907370556
100.369311715514
100.370413963371
100.36789797219
100.364968635735
100.362730002901
100.360669967409
100.351904029489
100.355505833567
100.354324724377
100.357932336041
100.358920960873
100.360786556366
100.363121062281
100.36224885951
100.359647144185
100.359967656387
100.358470604466
100.360307414839
100.361720629839
100.362125450459
100.362806189143
100.363976789196
100.363936129002
100.366730894699
100.368167054796
100.369518180892
100.37123280523
100.372113733245
100.372232192435
100.372313828189
100.37226553633
100.372751834501
100.372931236742
100.373082943711
100.373200511361
100.373349860554
100.373521584103
100.373733434537
100.373977936922
100.373900834198
100.373590913413
100.373916854625
100.373914947532
100.374099818487
100.374288623681
100.374064293639
100.374183083645
100.374429637233
100.374540656323
100.374526245319
100.374607750975
100.374911178383
100.375145486059
100.375440719723
100.375574392093
100.375661697219
100.375677839885
100.375525011377
100.375305721034
100.374961738689
100.375045984244
100.375170519247
100.37546864812
100.375598359663
100.375647605503
100.375619260536
100.375474790316
100.375270623067
100.37520153009
100.375124113868
100.374930357766
100.374643907811
100.374252132047
100.37376089044
100.373540414802
100.373337890465
100.373226499105
100.373021229167
100.372902613414
100.37271479038
100.372891080703
100.37278235773
100.372942262503
100.372872415187
100.372761168042
100.372594743528
100.372762669267
100.372602941195
100.372510949313
100.372369171326
100.372214954473
100.37203212583
100.371821259427
100.371923355736
100.371681941141
100.371463716521
100.371241138211
100.370993734262
100.37071062799
100.370421878655
100.369932311763
100.370189086131
100.370540602907
100.370813049194
100.371060019068
100.371303223421
100.371532643653
100.371772080077
100.371605385978
100.371659450382
100.371861323484
100.372055234725
100.372284308679
100.372407883296
100.372589407946
100.372416126677
100.372481082063
100.372672814634
100.372755249106
100.37270270249
100.372632798091
100.372462465828
100.372260949678
100.371925752108
100.371899187533
100.371952419679
100.372333566177
100.372602691653
100.373008377088
100.373425216694
100.373949155396
100.374232598396
100.374376780261
100.374154034906
100.374270254578
100.374405962099
100.374646866131
100.374615908029
100.374766597566
100.374862349673
100.375129346699
100.37549878969
100.375368956469
100.375489857107
100.37552493492
100.375407546752
100.375389351564
100.375317361952
100.375066353331
100.374782276916
100.374611554851
100.374331291185
100.373933017853
100.373645568092
100.373234188355
100.373132396347
100.372990687169
100.372989643531
100.372931587499
100.372995571784
100.372905298779
100.373149271894
100.373013002864
100.373211450344
100.373105196234
100.373078129292
100.372890682901
100.372997337098
100.372858002344
100.372759969464
100.37266840574
100.372564256415
100.372357432808
100.372331208604
100.372150624949
100.371957101228
100.3717365561
100.371518864979
100.371291881492
100.371013920045
100.370714025017
100.370403727228
100.37006326333
100.369650332367
100.369281041658
100.369642795296
100.370045008664
100.370257421739
100.370581491435
100.370885093451
100.371155654515
100.37139077693
100.371631801824
100.371865137006
100.372133614204
100.372325771716
100.372211358477
100.372320973837
100.372455323839
100.372544635241
100.372680564245
100.372891177386
100.372770186768
100.372778060642
100.372862648425
100.373045098405
100.372906564353
100.372870464751