/*--------------------------------*- C++ -*----------------------------------*\
| =========                 |                                                 |
| \\      /  F ield         | OpenFOAM: The Open Source CFD Toolbox           |
|  \\    /   O peration     | Version:  v1612+                                |
|   \\  /    A nd           | Web:      www.OpenFOAM.com                      |
|    \\/     M anipulation  |                                                 |
\*---------------------------------------------------------------------------*/
FoamFile
{
    version     2.0;
    format      ascii;
    class       volScalarField;
    location    "0.4";
    object      p;
}
// * * * * * * * * * * * * * * * * * * * * * * * * * * * * * * * * * * * * * //

dimensions      [0 2 -2 0 0 0 0];

internalField   nonuniform List<scalar> 
87341
(
100.103088859053
100.10510079541
100.101495175758
100.106007116758
100.113023934351
100.113259978104
100.11129512205
100.111895688714
100.112103252452
100.112426404217
100.112595512973
100.112327310945
100.114108045343
100.113653968853
100.115887038609
100.115936077778
100.113447873686
100.110008060041
100.107503666744
100.107170033838
100.107041483326
100.108470275561
100.106275982467
100.108023189429
100.110337965841
100.114489559643
100.109108637037
100.108065184819
100.107307741328
100.107109429216
100.10698774971
100.107410169535
100.108000473748
100.108994265538
100.114237475607
100.110178611515
100.107803849833
100.105982152444
100.108114058263
100.106657944447
100.106842716479
100.107182388247
100.109712562029
100.113144511641
100.115497402161
100.115345638483
100.108594989899
100.107670502835
100.104810676133
100.104913521104
100.105248954897
100.105095252831
100.105035277554
100.104830603512
100.102475954066
100.105878673347
100.109319116098
100.107774186199
100.104511077651
100.103492065913
100.102781693816
100.103462283148
100.103407495015
100.102635154483
100.103551879178
100.104584407655
100.107923565496
100.109530132402
100.106129462972
100.102720905899
100.105158542254
100.105372536794
100.105373006546
100.105507002914
100.105066610046
100.104964600853
100.107974758018
100.109001480008
100.106588221648
100.109783964824
100.112865038541
100.11438344037
100.112239901085
100.112002450752
100.113220209551
100.111380683019
100.108911954485
100.104656678051
100.110119712703
100.098600296712
100.087400855328
100.093408934073
100.094619604126
100.104738704877
100.099572650647
100.100620910925
100.103214451381
100.102195170849
100.101672990416
100.101815735415
100.101117006025
100.10548580648
100.106059835905
100.101898967218
100.102319755975
100.099540915503
100.098396789598
100.099389371299
100.099407833937
100.098467623213
100.099590400286
100.102336037081
100.102039445293
100.10622790054
100.105766705537
100.101287416703
100.102188595605
100.102018342685
100.102480705362
100.103496184843
100.100792988825
100.099658480506
100.105185392731
100.105487154562
100.102148366138
100.105856883988
100.112252649692
100.117242153082
100.110193784358
100.110016113914
100.11483313323
100.130172727441
100.09964266812
100.100209412138
100.084824071874
100.057999668259
100.058890489103
100.054628619529
100.055123571052
100.061272957796
100.091512732424
100.102906113336
100.099694988513
100.099380472471
100.104051932002
100.110692280699
100.092715301343
100.093305187341
100.094637169922
100.103554734248
100.098758394047
100.098756202009
100.103523482813
100.094678695133
100.093376835151
100.092839415
100.091295375935
100.091777837351
100.095078156824
100.093327827394
100.053431911251
100.055505457905
100.056737394546
100.056507460715
100.055551606874
100.05559434814
100.057728239174
100.058122032011
100.061776726625
100.091124908341
100.086274168259
100.06993062482
100.064214692452
100.064058032613
100.061171600322
100.06212468566
100.056589829135
100.056761194079
100.059116106619
100.062827846119
100.062837257093
100.059131543842
100.056755219394
100.061911913811
100.061007455366
100.054688300135
100.055564607198
100.061957651894
100.062382912533
100.061508078675
100.061196724295
100.062116724403
100.061971296388
100.061103316472
100.062209086607
100.062294981997
100.062965710296
100.06313580347
100.06248911638
100.057766089832
100.058569814259
100.058560897805
100.057814378818
100.056749274419
100.057871239105
100.057488610513
100.060958831723
100.062105531977
100.062861127666
100.063166234588
100.062491573391
100.062420877345
100.063114441459
100.063007282709
100.060863212127
100.060630216829
100.06075378423
100.060945901292
100.061046386439
100.060926733694
100.062717735565
100.061826629924
100.061807544192
100.062399252498
100.061880320318
100.060953959867
100.062105182734
100.060563566235
100.060442941736
100.060632060701
100.060726415527
100.060534545216
100.06057779679
100.060849662949
100.058405991141
100.058480123814
100.058427829388
100.05855594112
100.058638689422
100.058730045154
100.058697138048
100.058665301913
100.060890326494
100.062676815756
100.062978845367
100.06277155009
100.060751356833
100.058436372589
100.058340378776
100.05820701513
100.058228973863
100.058244281296
100.058201526927
100.058269068088
100.056256011187
100.056440751877
100.056514263142
100.056437486906
100.056582807906
100.056751041808
100.056893619506
100.056867591997
100.056830140192
100.056775209228
100.058626735455
100.060931454296
100.061337276046
100.058836150494
100.057030232713
100.056533857484
100.056343724141
100.056222395759
100.056310460248
100.056314710113
100.056201245419
100.054123109462
100.054136132832
100.054533449194
100.054603107606
100.054446241645
100.054634054598
100.055030026147
100.055296753755
100.055235871668
100.055195797225
100.055163614528
100.054803171838
100.054373360918
100.054242298208
100.054453657394
100.054445539368
100.052006752498
100.051379097035
100.051341195657
100.052081648877
100.052265199845
100.051944727567
100.052171711664
100.052908082202
100.053378276241
100.053300017393
100.053259212129
100.053224287655
100.052670844013
100.051870225199
100.05172430486
100.05209792102
100.049510668737
100.04928647204
100.047933646077
100.047739666196
100.049289492241
100.049787508253
100.049825213723
100.05019122915
100.050814277431
100.051652006513
100.051243445034
100.051219529711
100.05148220999
100.050560748437
100.049851002904
100.049509365428
100.044613235934
100.038820619023
100.037566329844
100.040386430335
100.040685391435
100.039144281732
100.039882273033
100.045259653976
100.046631516588
100.043641056248
100.046536467618
100.047851167501
100.047839990953
100.046508788778
100.043364343003
100.046213292258
100.067451542859
100.066801588622
100.067792063803
100.070091721786
100.077503289063
100.067502514312
100.067192274039
100.076351796633
100.07398928705
100.066839703134
100.07364789144
100.085690202322
100.084281365905
100.073325140471
100.064738829895
100.063362387868
100.060959452028
100.065728159656
100.068020721293
100.073139563456
100.066499157914
100.059097279283
100.058547580684
100.055597483019
100.050377235417
100.049563626382
100.053845787757
100.057280933265
100.058457769213
100.0622374122
100.07592263968
100.069450463881
100.073470798066
100.066624182198
100.068539510334
100.062599194719
100.07372195364
100.071800125737
100.070293228016
100.074812290126
100.0941024418
100.130321196886
100.173291613743
100.222803875793
100.273168682513
100.326542728136
100.368836292923
100.401101074004
100.438797286321
100.464561882725
100.477996289045
100.487249278038
100.45629990115
100.459877150947
100.462876241713
100.463689236275
100.462531256343
100.461100059884
100.460981093174
100.469096905364
100.467419690368
100.469085658005
100.47149102807
100.472645328923
100.473998198605
100.472200950677
100.472932544297
100.450428672204
100.463741605199
100.478099366993
100.466188493155
100.458448211933
100.44815736974
100.447387848883
100.451875291306
100.445758461385
100.425937619766
100.433967039375
100.444087805707
100.446557387991
100.436848836369
100.437541991461
100.444486212958
100.453454577974
100.450887799956
100.467422811463
100.418572817967
100.43055963006
100.433331348634
100.43321962475
100.430223779959
100.418958282677
100.423794553646
100.425172482686
100.41831323731
100.41354881352
100.418661725729
100.422771871841
100.422517196198
100.418157391966
100.411999980038
100.416168957168
100.424352099079
100.423416498534
100.471283165821
100.468504126961
100.411625485317
100.414399011751
100.412362835338
100.411829099681
100.416676385135
100.405528168826
100.402279579701
100.412344772237
100.416584411409
100.413172292111
100.414535862118
100.411450063465
100.418107944766
100.4126475061
100.406481916688
100.414031211889
100.428662880329
100.453655590438
100.451527233344
100.460515890331
100.460987853721
100.461771150114
100.46294584798
100.465895971993
100.467272472423
100.470464657189
100.466777772144
100.467569951298
100.469760997109
100.472373895576
100.466566293022
100.476134019116
100.460519501221
100.447504294714
100.446278809745
100.459194590454
100.453321585736
100.446312272913
100.44225874946
100.431508963093
100.424751108001
100.44532597955
100.464104529019
100.465948895739
100.467975497581
100.420155629296
100.418941842398
100.417738546693
100.412669399315
100.406489562339
100.411754927422
100.408144871658
100.4014124681
100.407252719809
100.410820009152
100.406018390925
100.408998123962
100.407588550135
100.409652188907
100.407926110768
100.403810458382
100.407533548148
100.405985849924
100.40977318785
100.404712549474
100.399269709002
100.408839499077
100.413120378183
100.422543955673
100.433065301172
100.435147346598
100.43063283597
100.423939703051
100.426550597758
100.460308166146
100.488405816238
100.472632673447
100.492960544736
100.507859094523
100.471828377028
100.449427058083
100.452867371703
100.471850488886
100.467438708088
100.467103113229
100.501093445883
100.491525862385
100.494316983323
100.479790161507
100.48619256844
100.477864458865
100.478112054048
100.483433318642
100.478386188672
100.495338159254
100.478107064029
100.48666565171
100.482800121808
100.48324754086
100.486148870426
100.495097780861
100.50554257726
100.507451465166
100.490844037134
100.48894029372
100.492208599305
100.497520214827
100.490789160707
100.462981514097
100.430805041803
100.43139233123
100.438396126298
100.442349347373
100.439998807815
100.430971889682
100.422373243723
100.414195005728
100.418364066545
100.403011605252
100.397816038783
100.408660445201
100.410112874517
100.420162783991
100.41978118706
100.409685913325
100.399114425197
100.417641819823
100.42483255598
100.421458041482
100.41881373001
100.414939054575
100.458651998415
100.464250813581
100.462202718568
100.419283486146
100.428877381638
100.426801874416
100.424237469725
100.42078614517
100.417717287307
100.426719121697
100.449366661256
100.45937200732
100.457592650807
100.412992087909
100.414996580331
100.396906591831
100.404526327317
100.415654064716
100.417348588944
100.40767354639
100.394915267903
100.394059444234
100.398336247588
100.413140097758
100.415151588862
100.429843894361
100.460241914452
100.493803671033
100.491491864245
100.477138886993
100.480771626861
100.482240143753
100.492761443805
100.497479320735
100.484248540446
100.485047873164
100.478381619846
100.504983296769
100.502427840901
100.506124170227
100.501451093911
100.486584066768
100.486188653306
100.498811318801
100.496653085264
100.491746337596
100.492200236842
100.494684633071
100.492537594461
100.494670941549
100.476479717826
100.484525235062
100.46154943746
100.447748993823
100.44644150773
100.448741621643
100.461528330059
100.441578994245
100.446327704604
100.443942880556
100.440792532474
100.436606342936
100.43496383511
100.46588680054
100.470262838516
100.471119136741
100.472394573771
100.465473198132
100.468628642676
100.465752235552
100.468412994228
100.46821319256
100.468202958847
100.466944319173
100.466218854198
100.463113768447
100.464141732653
100.46553057672
100.468967306771
100.471754546251
100.471734250456
100.470358851597
100.471658903424
100.471411860031
100.472537721628
100.471781184439
100.471080086162
100.469797475435
100.469491755915
100.470941070851
100.469078710476
100.469150807981
100.467258739249
100.465433961815
100.465138430959
100.46469722637
100.467059585183
100.466663894057
100.468537868318
100.469705368465
100.469242332852
100.470555953212
100.469371186566
100.470152039571
100.469559658306
100.468319405908
100.468484754361
100.466045554594
100.465804499727
100.463917233471
100.463775682429
100.463754156683
100.46417224251
100.46441751877
100.464719852816
100.464167611318
100.464535709969
100.464672550401
100.463360412628
100.463947458342
100.465187475889
100.46778555957
100.470608260195
100.47012321455
100.470905863462
100.469327227607
100.46977598174
100.47031650188
100.471488811129
100.471416011402
100.472057667897
100.472276882748
100.472402112927
100.472680059867
100.472254908177
100.472966378658
100.472459749773
100.47361012526
100.473283150883
100.474612843975
100.474761065849
100.47476200663
100.474041852117
100.473076833545
100.472941517064
100.472270204841
100.472092384697
100.472382852041
100.472717266702
100.474600027411
100.474162892916
100.472495258539
100.471945496556
100.473341697195
100.472299869928
100.471457749453
100.471220414971
100.470973415216
100.468426591867
100.470976774206
100.470976571203
100.471175455585
100.470542349271
100.470433135108
100.470659072072
100.472085135421
100.472728491521
100.47184580462
100.472560770802
100.472677718793
100.472869456737
100.472747027881
100.472578041472
100.472410004631
100.472002204175
100.471550362806
100.470348274218
100.470055774134
100.470539872051
100.469162183901
100.469622571474
100.46886986329
100.469165728797
100.469504088677
100.467433355202
100.469666281917
100.469325023291
100.470497383454
100.471055877989
100.471837233854
100.472663062514
100.472530207695
100.472235718044
100.471579470302
100.471868797033
100.472305624307
100.471703248777
100.467802334309
100.466608035455
100.467249515211
100.467174957195
100.467162836931
100.469306347156
100.470778319414
100.469082565574
100.466960993155
100.463681819765
100.459069676986
100.45268517936
100.460900200726
100.460002807598
100.459841579866
100.460060223008
100.457306333021
100.461371277714
100.465574154656
100.470464315842
100.467870714112
100.470432925637
100.46910767555
100.46850726115
100.471249730732
100.46905276852
100.468740482685
100.471367986237
100.468521024263
100.468974450549
100.470805822815
100.468367545634
100.467072987065
100.464673823373
100.4657630069
100.464301601344
100.464279255605
100.467038252829
100.465656696888
100.468503307043
100.465882134152
100.466247619664
100.465285707061
100.465010130474
100.464928708012
100.464438983139
100.464514582061
100.464938419506
100.466110034439
100.46481207649
100.465231984837
100.464814191786
100.465904653965
100.466550132492
100.46721084883
100.466951655544
100.466793899073
100.466504465451
100.466451339487
100.466625230982
100.466049845448
100.464662314675
100.46490874565
100.465560448643
100.46460713529
100.463543838685
100.464094235923
100.465158663709
100.463609540913
100.462779574839
100.465938762109
100.466131580936
100.465853227482
100.465124830189
100.462530181288
100.464063599607
100.465940645346
100.464933781912
100.463350027169
100.462685811066
100.465686444517
100.465805073326
100.466027492166
100.467439465099
100.468203571103
100.469170550798
100.469561032486
100.469489288158
100.468896455941
100.46904267323
100.467182873316
100.467365399958
100.466258959336
100.465639220197
100.464203996294
100.463596656003
100.463950913413
100.466102461831
100.468574027543
100.468918186906
100.470287276242
100.468663204929
100.467325485594
100.466546248468
100.466858579654
100.465774605462
100.466176409642
100.466291072821
100.467466061165
100.469220546082
100.46872459847
100.469704685635
100.469469804665
100.469868397893
100.46984482116
100.468929703599
100.468891243253
100.467699859274
100.468823340272
100.468294694887
100.466699336229
100.466377327462
100.467650568699
100.467279044185
100.468128711248
100.468089646945
100.466449492127
100.464954052342
100.465005055917
100.465145003099
100.464230944641
100.464248384247
100.46525554486
100.468296902177
100.468123977588
100.469377525075
100.4694878491
100.470229355042
100.470139489253
100.469222737776
100.46885219595
100.469035789222
100.46811369601
100.468292808264
100.467732191314
100.468123128628
100.469602006743
100.469579998611
100.469919199664
100.469786544552
100.469989212536
100.469957609898
100.469198720215
100.468933932037
100.468303475122
100.468432645075
100.467849309028
100.468133984535
100.467696979703
100.467893781471
100.467853831432
100.467525942005
100.46712862599
100.466356901065
100.465457475298
100.465176234636
100.466750373424
100.466462579842
100.46559029057
100.466046014129
100.463061391848
100.459506826113
100.454626114653
100.451815723467
100.456920659393
100.457041953494
100.458829502337
100.458935833484
100.459387641979
100.463263559274
100.463190914878
100.463376770242
100.463387217801
100.46363419469
100.463416624608
100.461829739773
100.458433093593
100.446731317596
100.445356705517
100.444810117131
100.445369504547
100.447186666408
100.44994487352
100.455337581923
100.452420007363
100.443933836126
100.428623605198
100.41201683546
100.436295881575
100.43146927627
100.426817654199
100.426247955289
100.429538484726
100.43233864816
100.423781717228
100.439434327914
100.452928237601
100.448027679652
100.456834230091
100.450122428686
100.448606667605
100.456772339215
100.449285654476
100.448994359442
100.456393072199
100.44689368048
100.449285939356
100.441896293424
100.451347346309
100.444316490445
100.449607842684
100.449143037993
100.451664810968
100.455526926917
100.460498810217
100.465980848827
100.467086188258
100.466075136335
100.466906390337
100.467433344852
100.465236390996
100.465495245618
100.468310427711
100.468838832982
100.466637797883
100.46612471244
100.463574339745
100.460644230364
100.451697748334
100.438661179335
100.425826090753
100.418310638354
100.413390895199
100.424030089841
100.419824967671
100.425938366808
100.420358459663
100.418089549267
100.416165666082
100.416176457799
100.418153626909
100.416830474703
100.422420543876
100.393594202486
100.379784181413
100.37990559354
100.385722647462
100.40401373465
100.404449330742
100.387227566773
100.371841426294
100.371070619751
100.342295563545
100.343254711814
100.345545313788
100.356644075673
100.348287802241
100.329292486432
100.297160846405
100.279536657165
100.315561385833
100.304581499594
100.30362916746
100.313435496277
100.343132589544
100.352718017975
100.34261588757
100.371397840014
100.393935719216
100.394313032338
100.393583103501
100.393236678328
100.392140053766
100.381174225692
100.406800348939
100.387052931325
100.399198435109
100.393327702949
100.397172420848
100.403690419257
100.414953691338
100.440543594385
100.447589385338
100.455458021695
100.464974528342
100.463475512157
100.455688508796
100.444900607992
100.421662390508
100.403048781158
100.369521037362
100.34708738696
100.334545147038
100.32832233156
100.3294092157
100.3483610711
100.338474926271
100.343835973161
100.332532572313
100.335657370613
100.334180701225
100.333404426819
100.337898407122
100.296495820684
100.28440699663
100.293699885867
100.324728875264
100.369017588228
100.398687649035
100.423527359652
100.443138383588
100.453207402462
100.459185223565
100.461210821663
100.462043272175
100.469753627703
100.502777052886
100.48598972825
100.483221018212
100.483432985057
100.482304931981
100.484358813579
100.488140696031
100.50652428813
100.493576742797
100.485008404508
100.481534690417
100.452950997713
100.436504864072
100.436145963716
100.441292150857
100.45837017695
100.44677634601
100.441571316624
100.436362464589
100.426921137207
100.4286093926
100.438410949544
100.440120590013
100.431907958184
100.433180707047
100.443214581377
100.447335830857
100.449403125651
100.462181512766
100.428414371715
100.425685922155
100.422385645574
100.413568158572
100.414391168514
100.425843303551
100.417556751071
100.416812995969
100.410094840543
100.405549716521
100.41196277711
100.417158418666
100.467130624289
100.471104099476
100.468794269477
100.475932257023
100.473050891009
100.475918703571
100.473387692682
100.475394616504
100.472612791103
100.470138268958
100.469042338398
100.469595226085
100.469693247723
100.47109595246
100.470967923506
100.470530575687
100.470461481829
100.469281473683
100.468914761124
100.467154015719
100.466563836415
100.465063025512
100.466103000157
100.469904206134
100.473619095652
100.476694536616
100.478251780387
100.478613279602
100.47903215797
100.478843188406
100.478975484232
100.477134206846
100.478982560258
100.479425238883
100.479213173488
100.479342454676
100.479181436387
100.479030356854
100.47847814655
100.478836031235
100.47888745493
100.479308322362
100.479447211325
100.479661356403
100.479944403855
100.479553639542
100.479507313523
100.479468336622
100.479369593236
100.479343482001
100.479233897517
100.479025415064
100.478837181692
100.479064892751
100.478758910541
100.479014484812
100.479074256067
100.479173561213
100.47938250253
100.479453187331
100.479523291954
100.479445698345
100.479247665928
100.479079707399
100.478900234344
100.478872770863
100.47843388738
100.477952122669
100.47811393783
100.477410589495
100.476622002993
100.475638730811
100.47374495302
100.472228477671
100.471789731744
100.47404058154
100.47538296318
100.476833222518
100.477523091259
100.477978743289
100.478533308208
100.478703454927
100.478757249848
100.478876478477
100.479043324167
100.47920405364
100.479390373554
100.479563955605
100.479632162849
100.479920379447
100.479800483715
100.479633617341
100.479450238202
100.479268031148
100.479465655081
100.479603934618
100.479777228905
100.47992870742
100.480068094353
100.480119929024
100.479905309338
100.479634111282
100.479531197638
100.479584740323
100.479807279565
100.479820949951
100.479682201632
100.479778490998
100.479898629895
100.479851559762
100.479765344047
100.479725036683
100.479710336504
100.479567529533
100.479811750532
100.479250678569
100.478697471461
100.479353055844
100.479358980907
100.477464091485
100.478290033511
100.478459872387
100.476772966628
100.476269918665
100.474280135623
100.472626589456
100.469975172549
100.468700322932
100.467534461814
100.467675068351
100.466462336487
100.467959125267
100.468280596155
100.468694600113
100.469321154129
100.468780434146
100.469511653686
100.469473626626
100.470064875904
100.471137945053
100.470658438826
100.470418745133
100.469888064199
100.470670897641
100.470341220584
100.470108428679
100.469746846596
100.469656223304
100.469762893205
100.470218759587
100.471301748914
100.473519234365
100.4750524128
100.476945150804
100.478443341446
100.478848111558
100.479663149935
100.478564234426
100.478732369534
100.478925635961
100.479338967328
100.479239765252
100.479327404725
100.479130785748
100.479047463203
100.479154649
100.479128540353
100.479144033821
100.479296151735
100.479077344628
100.478704770332
100.478574632267
100.478503360208
100.478607591981
100.478666912493
100.478679870261
100.478693125325
100.478961105517
100.478908479058
100.478826204589
100.478981675334
100.478867747822
100.478483651928
100.47868662583
100.478696613256
100.478563873404
100.478999357845
100.478689885561
100.480074883355
100.478287971108
100.477572410178
100.476535185922
100.477436661696
100.475433917105
100.474856020963
100.472318862975
100.47169893923
100.471547046295
100.471300501324
100.471440112044
100.471433498868
100.471543066324
100.471659255419
100.471081675618
100.471317158252
100.471696107536
100.47156321634
100.471130829506
100.47089039623
100.470527229753
100.470897498066
100.471637796963
100.47135833045
100.471549556279
100.471760493647
100.471530091188
100.471836212166
100.471864852979
100.471643539788
100.471274486991
100.47087108368
100.470550476942
100.470021717696
100.470075036127
100.46855755118
100.467350029018
100.466207016019
100.4655382094
100.464760969374
100.466003592544
100.469316093619
100.473213668924
100.476137653634
100.478213978843
100.478541609398
100.478739074724
100.478608850137
100.478727857126
100.476785066101
100.474443199914
100.471040507094
100.468852734701
100.468096500675
100.470766629168
100.472719968401
100.474299574211
100.477389666317
100.47573165979
100.474390734541
100.472377130874
100.470789948716
100.474758354728
100.477381271002
100.476245397175
100.475821076479
100.47722879783
100.47807626914
100.480004971744
100.478275652255
100.478087959613
100.477353905343
100.47846247288
100.478847047391
100.479222933563
100.47964469464
100.479016821727
100.479209379249
100.478910173966
100.478552664463
100.479101152576
100.479120752856
100.478841410907
100.479017558267
100.479017079011
100.478187552644
100.478686238015
100.478091625706
100.477587053306
100.478033632105
100.476503154929
100.474379259407
100.471674454032
100.469847054589
100.469854120707
100.469411272138
100.467870713453
100.467034897591
100.467871412292
100.469508392604
100.471295960963
100.472306433745
100.471715691781
100.469805006795
100.468075806068
100.466584207722
100.467844905895
100.467571567512
100.469273128214
100.469673694874
100.469981274558
100.469757906659
100.469066675175
100.468539214399
100.467524342183
100.466898606447
100.46783303351
100.469062907268
100.469862524975
100.47104308426
100.472320706758
100.47285558543
100.472370706994
100.47175452621
100.471241235028
100.471046536618
100.469690559262
100.468764017348
100.467253193912
100.468286236804
100.469637291067
100.469383787803
100.467910344053
100.468933033805
100.468568666361
100.467770474958
100.468840214164
100.469723414935
100.470527545976
100.471551461297
100.47224165328
100.472784134276
100.472220279999
100.471329672942
100.470376238712
100.469595408216
100.46968208131
100.470099477831
100.469204146735
100.468541455935
100.469272395519
100.469887012876
100.470125665039
100.470773914601
100.471685192236
100.471688664175
100.471437596728
100.470676882557
100.470046153988
100.470154146438
100.469951486742
100.469572487485
100.469958157563
100.470539585816
100.471322352185
100.472096434016
100.472388117562
100.472107556059
100.472108995941
100.473183335435
100.473354708105
100.473194232577
100.473716353866
100.474507152337
100.474709795059
100.474459695415
100.473390712371
100.47357138368
100.474937807894
100.475265486697
100.47494392189
100.47462694466
100.474201542063
100.474017409053
100.472679815081
100.472874345244
100.473324702409
100.474931272121
100.475700549659
100.475393936424
100.474348273247
100.474278113271
100.473285939223
100.472460230573
100.470663901979
100.469100017427
100.468197198403
100.469880953806
100.471425605794
100.470381091382
100.467886270629
100.467667575671
100.466952159586
100.465385160982
100.465624778237
100.467188702227
100.468070372436
100.468672367773
100.469246733469
100.46910589453
100.468891946558
100.468526788604
100.468583601366
100.46906928747
100.469460224127
100.469658138024
100.469885560978
100.470081147213
100.470617353441
100.471410515694
100.471859231791
100.472756372639
100.472798610732
100.472713948975
100.473036891632
100.473926817549
100.474041888675
100.473796872562
100.473932628067
100.474496133982
100.474695396991
100.4746912145
100.475031977057
100.475195341793
100.475022603871
100.475742114501
100.475543322932
100.475823653206
100.475756025728
100.475883906843
100.476028750159
100.475419864874
100.475184395521
100.475394420732
100.474158762173
100.472674060513
100.470800762129
100.469055771636
100.46750114369
100.468122060415
100.469281781246
100.469077758053
100.468593779087
100.467797957791
100.467464972253
100.466722921714
100.466127610764
100.46528120547
100.462505572068
100.460446550696
100.45942101481
100.466372940926
100.46977342425
100.494779840879
100.490867999543
100.457800963911
100.424803685225
100.386005512773
100.364586990809
100.379293426115
100.37663908406
100.374849543659
100.375139735796
100.375892260095
100.376693508461
100.377747612804
100.379147118841
100.380730496561
100.382170203488
100.383297659855
100.384085674051
100.384547261861
100.383119802418
100.38160046918
100.380016461346
100.378454560456
100.377028135475
100.375809020824
100.374819606738
100.37399964399
100.373236544117
100.372408691786
100.371454295118
100.37051028556
100.369997355964
100.370512941477
100.372312102978
100.374752259156
100.375670490165
100.37517690175
100.375064320714
100.375139160661
100.375184338004
100.375325999022
100.375594583375
100.375670695421
100.37584414399
100.375978966877
100.37626047787
100.376484247729
100.376919472529
100.37721523969
100.377313882844
100.377183752508
100.37698934189
100.377001179188
100.376635466422
100.376322390864
100.376277755099
100.376101325307
100.375855744194
100.375702869767
100.375530730513
100.375453506078
100.375220583355
100.375073860628
100.374916510893
100.375005690371
100.375148559783
100.375321505139
100.375412429504
100.375572513924
100.375695447229
100.375924846716
100.376371116626
100.376733567239
100.377195145501
100.37711922585
100.376953443139
100.376788783706
100.376862992399
100.376754636272
100.376839147998
100.376452809357
100.376134995228
100.375719935049
100.375541068683
100.375426163497
100.375278094607
100.375164728622
100.375072734809
100.374900615601
100.374815057522
100.374717701608
100.374724533435
100.374706110892
100.374749007853
100.374817535899
100.37500544289
100.375034371527
100.375156395334
100.375195015692
100.375424227343
100.375583817379
100.375963526083
100.376210527908
100.376496734142
100.376548702511
100.37626332359
100.376216793363
100.376103312195
100.37595179041
100.375760603315
100.375449018375
100.375325030454
100.3751485795
100.375081550723
100.374948215596
100.374934192985
100.374725253648
100.374649804831
100.374602989146
100.374490743305
100.374528394655
100.374560759175
100.374652805335
100.374827788886
100.374851642672
100.37497183215
100.375045594451
100.375215921019
100.375296029625
100.37549910176
100.375670756982
100.375706216747
100.375664894121