/*--------------------------------*- C++ -*----------------------------------*\
| =========                 |                                                 |
| \\      /  F ield         | OpenFOAM: The Open Source CFD Toolbox           |
|  \\    /   O peration     | Version:  v1612+                                |
|   \\  /    A nd           | Web:      www.OpenFOAM.com                      |
|    \\/     M anipulation  |                                                 |
\*---------------------------------------------------------------------------*/
FoamFile
{
    version     2.0;
    format      ascii;
    class       volScalarField;
    location    "0.4";
    object      p;
}
// * * * * * * * * * * * * * * * * * * * * * * * * * * * * * * * * * * * * * //

dimensions      [0 2 -2 0 0 0 0];

internalField   nonuniform List<scalar> 
79587
(
100.076752550801
100.078696709952
100.075321292435
100.079668508689
100.08671026566
100.086825822243
100.084781370242
100.08530629021
100.085419404405
100.085793723885
100.086081152041
100.08589339401
100.087771895415
100.087460171267
100.089798162988
100.089756221005
100.086438591827
100.081792089617
100.080774463102
100.080771639967
100.081762179169
100.081479379294
100.080698031656
100.082243156736
100.088652475886
100.088551126411
100.082894731954
100.081226234441
100.081199659902
100.080382710792
100.080255360406
100.08132332568
100.081234864177
100.082849660936
100.088312410937
100.088215881776
100.082041246399
100.080656355641
100.081465725566
100.081536394887
100.080632996145
100.080637565495
100.081704885853
100.086269370029
100.089412530181
100.089268870336
100.082370325345
100.081918301878
100.079632061265
100.078923319386
100.079051141753
100.078918635592
100.078326150586
100.07700462855
100.078121966818
100.079439760426
100.079538752987
100.078632159656
100.077666672614
100.076442885923
100.076113552159
100.076704037233
100.076628107468
100.075952658353
100.076454839812
100.077649970472
100.078479756062
100.079564987739
100.079640380283
100.07822497517
100.077146550164
100.078500403183
100.078993187733
100.079097582313
100.078883712964
100.079588684596
100.082126935165
100.082848683073
100.080438834645
100.08334004075
100.086254924644
100.087606238492
100.085283693921
100.08509300655
100.086485303901
100.084766519626
100.082405078693
100.078175055133
100.083452311554
100.072221502765
100.06121910521
100.066988040987
100.068084432271
100.07902964112
100.074700462405
100.07532971428
100.077654185863
100.075779187156
100.074297419205
100.073712495722
100.076432782529
100.078249958135
100.074109803757
100.073348238025
100.075547385147
100.072286463711
100.071175090902
100.072406470024
100.072408231889
100.071221410491
100.072297451824
100.075491177116
100.073222802065
100.073657499814
100.078295690464
100.076870931415
100.074002223083
100.074441813053
100.075829343053
100.077648943212
100.075234044246
100.074540896412
100.07929013069
100.079314300021
100.076295384512
100.079407269505
100.085618311111
100.090306533831
100.083250417681
100.083193720194
100.087999043552
100.103942282762
100.073639559064
100.074160974082
100.058470064727
100.031483419929
100.032419880186
100.028245837874
100.028545720001
100.034834323303
100.066254375039
100.077461811611
100.073167633097
100.07290843721
100.0796005343
100.067818570079
100.068515473798
100.068350292822
100.06858354202
100.076338980914
100.07187673593
100.07185919991
100.07627681203
100.068602029916
100.068415108762
100.068550869593
100.067681509216
100.066382315971
100.068383646616
100.066340200354
100.026706972556
100.029123201672
100.029928592415
100.029564410856
100.028959877606
100.029048425335
100.030522805133
100.031134393458
100.035270323139
100.032519877807
100.033512819328
100.037029322253
100.037035320399
100.033563708509
100.032540959897
100.035084984797
100.034585939338
100.027978454677
100.028792242777
100.035359943346
100.036031865908
100.034627865039
100.034278951205
100.035553801885
100.035462579641
100.034647429212
100.034965885139
100.035139495615
100.030183283157
100.031023546335
100.032267812766
100.032225738871
100.030952676954
100.030047396369
100.030947778959
100.030276544997
100.03446574177
100.035805603349
100.036391982705
100.036540365909
100.03591618213
100.036018700592
100.036680486691
100.036567935453
100.036008200985
100.036207276897
100.036356698528
100.036382884285
100.035551330293
100.035239959533
100.035179214925
100.035428946212
100.034973997514
100.034769600197
100.036018908154
100.034289341378
100.034100138271
100.034271866717
100.034091484155
100.034373729328
100.034694256542
100.034579300969
100.034447385927
100.034245726729
100.034432890957
100.034426164806
100.034439920265
100.034329386037
100.03605254059
100.036009408368
100.036285587401
100.036178379376
100.034300811949
100.031992488105
100.032006631896
100.031868752239
100.031942164886
100.031857168047
100.031660523507
100.031681436054
100.031901830702
100.031969627354
100.031891958432
100.032069690769
100.032052915254
100.032139893585
100.032104801814
100.032086006325
100.034303222917
100.034414970105
100.032116633218
100.0302352148
100.030113258522
100.030106440482
100.029985578322
100.030041165853
100.030115925665
100.030197200272
100.02993795983
100.029719253403
100.029922906714
100.029886339048
100.030075433344
100.030097713555
100.030228334331
100.03022610356
100.030222993467
100.028595601797
100.028585104257
100.028437389705
100.028385617844
100.028233424703
100.028182220017
100.028005685251
100.028230437755
100.028097870765
100.027796358112
100.028066960681
100.028047570073
100.028270595823
100.028347281383
100.028532535313
100.028578791012
100.026910414367
100.026941594948
100.02687209111
100.026638703276
100.026511606166
100.026271728214
100.026120278731
100.025762762324
100.025354405635
100.025410535413
100.025777288455
100.025989406644
100.026057599887
100.026344775896
100.026491585957
100.026786571871
100.024752912044
100.025007659391
100.025045760418
100.024849667334
100.024479742917
100.02423696811
100.023825439591
100.023583403995
100.023341718388
100.022405904734
100.022436247177
100.023275308095
100.023393369057
100.023667687759
100.02404296651
100.024301413526
100.021169746903
100.022006048406
100.022482977071
100.022505845708
100.02205825461
100.021332895273
100.021204028035
100.020516364361
100.019843039929
100.019879323018
100.018227342754
100.018203910509
100.019759925874
100.019679810586
100.0204310621
100.021017919065
100.016506938738
100.01576800349
100.017591328822
100.018680274865
100.018658612595
100.017612484648
100.015890764398
100.01659078264
100.015685020211
100.013351921295
100.014502323038
100.010906292283
100.010875142589
100.014443069831
100.013309380705
100.015667147529
100.00418485806
100.004655210314
99.9996313283881
100.003318368687
100.007338780201
100.00722772764
100.003150379996
100.000008629908
100.004817495623
100.004054282196
99.9959725191413
99.9997238426915
99.9950812029673
99.9950266039206
99.9997231602262
99.9964466881031
100.002852209903
100.012323843308
100.011982181628
100.006634094281
100.013637017324
100.016141646019
100.01601446307
100.013666568302
100.006416009376
100.011642231215
100.012034190152
100.002606110987
99.9980019629916
100.028604442147
100.050164453197
100.049959812338
100.02850820206
99.995295929341
99.9956426915938
100.088699748529
100.171856539679
100.107404527772
100.107650149507
100.094360809727
100.083752488758
100.074226954892
100.072709916877
100.070347690162
100.070761937218
100.08442720274
100.077258166656
100.077106599047
100.084045326174
100.070311716194
100.069735331571
100.072516753142
100.073798825051
100.083182298243
100.093509037078
100.184543721255
100.200860271359
100.201072030075
100.185049950108
100.188889515838
100.179926407589
100.205817415998
100.248498770304
100.159663733852
100.162934520342
100.214913247427
100.179640840282
100.206574344537
100.232093867348
100.172476115368
100.172247593061
100.231741795747
100.206095477651
100.178905219478
100.21392045138
100.161407358215
100.158301142983
100.20488942792
100.179500580491
100.188017815004
100.274724602377
100.319955720856
100.288656993212
100.28866685346
100.320632109923
100.29423338071
100.275523407931
100.399665463553
100.429790967981
100.382573916092
100.401249804102
100.404787742724
100.354077835634
100.296978610874
100.330514716422
100.276443724925
100.399855264508
100.433678795712
100.389938782877
100.393542737345
100.319106590109
100.323729145688
100.251871578372
100.29922079371
100.385080708601
100.429952490496
100.397456380279
100.404663010985
100.340105967947
100.29356951332
100.334983965079
100.316021147927
100.321041254516
100.345485863698
100.255822768997
100.255733838562
100.345463716576
100.320889040326
100.315627045211
100.334190065311
100.292449830553
100.339099887931
100.32268451525
100.31795799017
100.329418170694
100.296072398519
100.293637117966
100.353106353227
100.400416341642
100.381950620603
100.39661687173
100.428387141342
100.428573045313
100.397073564505
100.36741011577
100.367282925369
100.446637959282
100.470677582776
100.460271818253
100.460479084097
100.461615577366
100.45048005226
100.432760662366
100.47712958259
100.478501233902
100.474712717443
100.468425282479
100.466337440189
100.459535682814
100.44469273889
100.445043301769
100.44783356903
100.459586568484
100.428827765944
100.430916739255
100.434072335853
100.441399493272
100.462104513539
100.45942760487
100.442038842894
100.40124087191
100.410037125684
100.389819806098
100.42279531569
100.412889502584
100.412769802487
100.422501863717
100.389306083341
100.409272587551
100.40038619688
100.40354635172
100.396214756392
100.392387412741
100.388752894512
100.403782373476
100.44431603708
100.444022103597
100.450004054836
100.461325340398
100.474396867905
100.472295086348
100.482905987478
100.483125620614
100.472577735029
100.472046158356
100.471833100427
100.478132097196
100.474452231759
100.47709080171
100.477454701831
100.480117260459
100.473491078448
100.475674480451
100.478540574778
100.478043319791
100.47829759557
100.477276643396
100.478612122325
100.475962399382
100.475999500284
100.476559688628
100.476177562202
100.470655210322
100.466858349802
100.473457426186
100.461415589794
100.479891581295
100.478654615629
100.477370125991
100.475130864822
100.481732777079
100.476212104604
100.474825815448
100.480206540229
100.462922591402
100.465314670017
100.466167101664
100.479181861422
100.474817122877
100.473261061956
100.473205417087
100.458719844721
100.454360337498
100.459760656942
100.446951898365
100.446945985625
100.459657233782
100.454195799572
100.458440568828
100.441283190594
100.45871390617
100.461213498223
100.440247694193
100.432838921422
100.429831044734
100.427775051662
100.446994460917
100.460735628622
100.466360324167
100.465797224252
100.468051883827
100.47563710689
100.473090998743
100.479658965942
100.477627990753
100.478206859776
100.479279694116
100.479491290761
100.478558080394
100.478308423757
100.478001972188
100.478014218389
100.479760374061
100.479741280617
100.479802153593
100.48086650948
100.479184689551
100.47831906541
100.48028621536
100.481291288367
100.481244320841
100.482177408527
100.480702968145
100.481777979018
100.480307470762
100.48124386088
100.480764392937
100.479757027441
100.478818954485
100.478688456731
100.476851883467
100.476608331434
100.475370709689
100.477038151607
100.479147898404
100.478306935544
100.479086123013
100.479553844415
100.477337806768
100.47522308524
100.478693201495
100.482837650525
100.477517061179
100.477163708126
100.48133710645
100.479293775869
100.48188925574
100.47679980598
100.438931757895
100.434932528829
100.436876894181
100.44905153219
100.451737877884
100.441313023599
100.440492410278
100.437281650783
100.434907088076
100.430715955651
100.432885410842
100.42007379097
100.430536486075
100.446862002981
100.432918299508
100.43574518056
100.446332563567
100.46930478849
100.46827443275
100.474075774228
100.464384354172
100.466492368971
100.471993689684
100.474860043437
100.467218657392
100.457254804699
100.455643585635
100.432004478018
100.436362581495
100.440243622057
100.440625178452
100.433961245584
100.428439336445
100.440242519782
100.425777114153
100.425619577142
100.437088160069
100.439164978989
100.426130879137
100.42357170186
100.445126339653
100.476522761054
100.476823246395
100.465551445884
100.483112082328
100.468027706978
100.499759398057
100.482267150884
100.467297129662
100.473138777492
100.47361988529
100.477811811485
100.47008900691
100.474451765033
100.458352940041
100.437591037106
100.431615711686
100.436072861331
100.416015023335
100.42163427564
100.444816050423
100.442902339412
100.434902175744
100.429226098534
100.442891500973
100.43175869602
100.429141375094
100.437720048778
100.42814453509
100.426218319372
100.425888591608
100.42569463945
100.423346059922
100.44500190885
100.476374221718
100.476733301311
100.465346936928
100.482739580249
100.479928246401
100.438153326068
100.439645137273
100.43992123672
100.433534963005
100.438291507145
100.48023669479
100.483723684857
100.482102020485
100.495371562691
100.48986442219
100.470324177632
100.451759947239
100.469917577537
100.474905606469
100.473390356388
100.473227197153
100.474298068242
100.458146997478
100.437465937871
100.437384538147
100.437430170113
100.441760375412
100.440738879993
100.437482303477
100.440044129464
100.433279503876
100.425530483074
100.429981416147
100.442550978868
100.436440286744
100.450889863583
100.441904655756
100.440017907162
100.447796926871
100.437487016171
100.437433048081
100.427987772985
100.437616306641
100.436939342777
100.438958087401
100.435350179621
100.44586763961
100.468681834248
100.467877886475
100.473569121188
100.4673404711
100.498974179675
100.483229579787
100.432982888379
100.439582317432
100.439888062446
100.476634040034
100.477668553131
100.496990219122
100.493104273657
100.492856455097
100.474560425084
100.477322348305
100.469646454781
100.455313825934
100.431595929931
100.431300618605
100.435716137067
100.441756438378
100.440766885764
100.444544824955
100.444672812007
100.438129557171
100.4386111691
100.454049228775
100.449514933771
100.454599097732
100.454541085439
100.451443492062
100.450738380193
100.448449988756
100.45014392375
100.457517466581
100.457528625093
100.450451251931
100.448438585865
100.447758133304
100.439875169479
100.429162382359
100.425243278569
100.425155670214
100.432446321311
100.446142696571
100.465675823313
100.463682497303
100.466465980442
100.481442387125
100.489148742659
100.494470281455
100.481626937101
100.476306436697
100.477398947268
100.496709283283
100.471224913222
100.468332353336
100.473781512436
100.470035451476
100.462566384057
100.476518972118
100.476749766287
100.477493040664
100.475578501294
100.473956710708
100.473659540613
100.47608934096
100.478299992437
100.47924465883
100.480455574013
100.480996616685
100.480894508828
100.480310354087
100.479317136866
100.477989771461
100.477595365497
100.479809144811
100.48744477415
100.501155092137
100.53104916621
100.529075193414
100.476067502087
100.432208541977
100.386903191287
100.361209773431
100.3803635561
100.378248903753
100.376609150796
100.377195793332
100.378166520004
100.379112934271
100.38025165732
100.381698062841
100.383329082307
100.384916941477
100.386230485513
100.387110892398
100.387489701918
100.387481874896
100.387199712655
100.386634713337
100.385825833092
100.384816247066
100.383595543278
100.382239183894
100.380787104564
100.37925138817
100.377684392148
100.376186295596
100.374833847864
100.373644289804
100.37262980623
100.371804098285
100.371283632163
100.371280961669
100.372060695736
100.373713816676
100.375963349619
100.376979428653
100.37667917147
100.376295903451
100.376491451462
100.376705069386
100.377062512912
100.377126942453
100.377374294717
100.377537139013
100.377634450395
100.377783324412
100.377882959008
100.378087048392
100.378274606509
100.378481353423
100.378616956033
100.378570479251
100.378569735322
100.378331628188
100.378250094764
100.378149703835
100.378066146066
100.377986773589
100.377919160012
100.377823341105
100.377789267074
100.377703481554
100.377647333481
100.377573748091
100.377509005241
100.37738253712
100.377510193316
100.377339137397
100.377565082832
100.377634730067
100.377724241512
100.377791960662
100.377889077201
100.377958933114
100.37805301345
100.378121673338
100.378205424702
100.378281050007
100.378382326198
100.37850748954
100.378501335688
100.378381130743
100.378124721073
100.377957504656
100.377745189214
100.377652090199
100.377508608573
100.37740894542
100.37721792014
100.376982756109
100.376763614945
100.376838194246
100.377074253049
100.37728283076
100.377386587043
100.37752311229
100.377615517022
100.377845351194
100.378024536425
100.37829179143
100.378410763825
100.378325813079
100.378201331739
100.377905549154
100.377718006199
100.377491194997
100.377401568183
100.377259718996
100.377134472223
100.376917972039
100.376689738203
100.376498683405
100.376546698475
100.376779999858
100.376990761274
100.377129123557
100.377276319401
100.377374592703
100.377602624107
100.37778275952
100.378097685816
100.378251030302
100.378161905509
100.377994419435
100.377653886523
100.377487727477
100.377263181591
100.377136847251
100.37699248062
100.376849696422
100.376627718998
100.376400780688
100.376237025852
100.376261233627
100.376489289853
100.37670448634
100.376843051579
100.37695971455
100.377206970045
100.377326647974
100.377553771571
100.377889029378
100.378078761001
100.377998489597
100.377780163177
100.377424490334
100.37716469107
100.377030158771
100.376817403363
100.376704459522
100.376561429427
100.376336788134
100.376117862915
100.375966564935
100.375993483671
100.376202685417
100.376419684352
100.376557209517
100.376688683353
100.376890794235
100.37701500365
100.377264986853
100.377657157189
100.377904888387
100.377782711882
100.377526097045
100.377106274703
100.376899106695
100.376847161858
100.376655276919
100.376566966023
100.37640368625
100.376280763043
100.37604849223
100.375844303348
100.375695720472
100.375727171432
100.375915551473
100.376150540137
100.37626760684
100.376433208168
100.376527321061
100.376809107526
100.377014143504
100.377426122724
100.37768750693
100.377575700444
100.377307108621
100.376876364186
100.376659720152
100.376383465143
100.376289659932
100.37612473135
100.376024064193
100.375766554246
100.37558241715
100.375429573375
100.375478779418
100.375642622639
100.375905312315
100.375981477319
100.376157706356
100.376260115932
100.376537200235
100.376732900054
100.377182820406
100.377468160585
100.377267960683
100.377018732529
100.376590739728
100.376423900197
100.376127558704
100.376017785243
100.375852424822
100.375784760187
100.375508881084
100.375352095273
100.375175992218
100.375273771877
100.375402223346
100.375641845604
100.375721545022
100.375900497028
100.376018958768
100.376294486642
100.376430943998
100.376838835378
100.377103539713
100.377167272163
100.37704108557
100.376917091707
100.3769043673
100.376589620346
100.376321728364
100.37631370895
100.376102785725
100.375881418418
100.375759700941
100.375583535928
100.375503537025
100.375303399557
100.375151984928
100.375073302813
100.374926156588
100.374908295482
100.374887376477
100.37497905818
100.375045140649
100.375217132527
100.375369137699
100.375468558159
100.375649618768
100.375756228304
100.375985001454
100.376387350014
100.376675043312
100.377075793921
100.3768863314
100.376766883774
100.376912520437
100.376696393989
100.376591344936
100.37657999656
100.376440911187
100.376726412632
100.376489509427
100.376203152085
100.375811937824
100.375609558629
100.375506768844
100.375335410041
100.375209895726
100.375126679441
100.374929722293
100.374846399992
100.374762810128
100.374642227369
100.374670800163
100.374732710491
100.374814971954
100.37504754787
100.375069035081
100.375228027805
100.375263513416
100.3755574527
100.375702969806
100.376088286507
100.376310450912
100.376088696691
100.376183390854
100.376069141191
100.376053569949
100.375946738805
100.375733147756
100.375925655799
100.375572624947
100.375447655663
100.375213009583
100.375139827977
100.374984186835
100.374944119657
100.374704717652
100.374611819692
100.374565094234
100.374491385435
100.374487404846
100.374513255141
100.374619484691
100.37479413452
100.374863273039
100.37501525392
100.375090573574
100.375381704049
100.375489349011
100.375526660092
100.375474513907
100.375487462517
100.37550689415
100.375434483562
100.375456813621
100.375504540059
100.375618811403
100.375741008487
100.375839438053
100.37596379805
100.376095326427
100.376235688223
100.376383163552
100.376526759754
100.376690935314
100.376842605128
100.376992866731
100.377152205798
100.3772975103
100.377444822771
100.377588283058
100.377731499964
100.377847946708
100.377916616984
100.378024084401
100.378355191215
100.378334725426
100.378617057348
100.378712923503
100.378628819022
100.378710487493
100.378296116414
100.377990271902
100.377824887333
100.377401204183
100.377215831475
100.377102644061
100.376883325732
100.376748037665
100.376646595498
100.37653651332
100.376399984391
100.376331312124
100.376277640664
100.376213104555
100.376137499586
100.376157689693
100.376209573622
100.376663765321
100.376645428487
100.376736696779
100.376788476972
100.376831335719
100.376819375588
100.376879477226
100.376994824757
100.377070521561
100.377133019916
100.377251672254
100.377403766443
100.377520185286
100.377617922358
100.377866769265
100.378331122017
100.378614647435
100.378469716033
100.378493759978
100.378358137032
100.378017411357
100.378147465864
100.378265078948
100.37841198566
100.378743019018
100.378838147757
100.378804229967
100.378456559098
100.378134832125
100.377667220182
100.377175793072
100.376655760574
100.376527176948
100.376330231827
100.376038070318
100.375766896541
100.375420261496
100.375162397358
100.374966432925
100.374779327397
100.374615991577
100.374407617916
100.37425864049
100.374101594132
100.373927788568
100.373759314297
100.374085325626
100.37446741649
100.37463598406
100.374708081718
100.374838605162
100.375004995633
100.375168350478
100.375287558705
100.37546800366
100.375644088162
100.375909560295
100.376395351204
100.376447303645
100.376729210868
100.376989815777
100.377559007596
100.377116412983
100.377196550615
100.37785798921
100.378027798482
100.378105273708
100.377978940355
100.377613320574
100.37767498681
100.377659459014
100.377759037519
100.37787470782
100.378023812806
100.378128722207
100.378269101163
100.378499215777
100.378818763164
100.378890458813
100.378826929587
100.378570334152
100.378261517798
100.377664109473
100.3772837823
100.377072397531
100.376704081739
100.376301844407
100.375876731788
100.375671473879
100.375435222399
100.375123567763
100.374954399838
100.374750568813
100.374519361519
100.374254600584
100.374024382651
100.373798095061
100.373631578306
100.373387222411
100.373148742939
100.37283998133
100.372581062057
100.372363239903
100.372237441456
100.371951661124
100.371724548037
100.371843356535
100.372331984842
100.372587362831
100.372743050188
100.372757766702
100.372965762448
100.373196407126
100.373457600679
100.37364922985
100.373880364049
100.374042201017
100.374237321816
100.374445339128
100.374745292399
100.375037481515
100.375256959081
100.375615429027
100.375717583406
100.375990066634
100.375603287434
100.375904551663
100.376177724389
100.376408619771
100.376989441106
100.377788585579
100.377513310427
100.377655603345
100.37759661924
100.377816594983
100.377947448833
100.37803041739
100.378174854078
100.378222836017
100.378410849915
100.3785954679
100.378891173208
100.378951084695
100.378876530605
100.378670738428
100.378585009297
100.378448017805
100.378028396968
100.377515311252
100.37693643203
100.376499817006
100.376068606278
100.375551747603
100.375451914289
100.375316686713
100.375115452778
100.375077441771
100.37487034972
100.374675073381
100.374530194451
100.37437415054
100.374144191744
100.37418296651
100.37393849389
100.373705265924
100.373499925384
100.373170934547
100.372864298331
100.372578288919
100.37236748491
100.371955021539
100.372173441273
100.372531008904
100.372830747015
100.373132407093
100.373438865178
100.373602410972
100.373839494226
100.37410783778
100.374095994401
100.374205248315
100.374431732966
100.37463533221
100.374903805291
100.375132870964
100.375296270464
100.375315663267
100.375068700365
100.375132940723
100.375162791045
100.375384443315
100.37527476665
100.375597447099
100.377635123134
100.377589003394
100.378106908671
100.37834229267
100.378000790075
100.378057520291
100.378015353908
100.378181368815
100.378243866437
100.37837533546
100.378464490581
100.3786570101
100.378804865745
100.379006160912
100.379118740198
100.379010779881
100.378995067179
100.378814360989
100.37855603741
100.378123389915
100.37772050926
100.37704735178
100.376703486255
100.376356423129
100.376158016174
100.375898618673
100.375663051863
100.375382401383
100.375471833676
100.375357025103
100.375221512631
100.375350735104
100.375108854496
100.3749645759
100.374845237631
100.374704335831
100.374845352847
100.374614603532
100.374375572301
100.374193523362
100.373990543997
100.373765486585
100.37345636096
100.373140020865
100.372833613968
100.372493527523
100.372129261482
100.371704371109
100.371275049118
100.370581206265
100.370867386765
100.371429883395
100.371928755782
100.372162150241
100.372460221139
100.372773942612
100.373095384584
100.373416791164
100.373629878066
100.373844239655
100.374094001084
100.374438746425
100.374689418647
100.37450239952
100.374545394732
100.374720151426
100.374903936295
100.375239136728
100.375190597876
100.375182749244
100.375097653651
100.374919069508
100.37464799811
100.37446547489
100.373790640282
100.376058814125
100.372912608307
100.372038146401
100.37197614419
100.371186013644
100.370661885544
100.369949869087
100.369127802482
100.368207504475
100.367119420725
100.364997699371
100.367197896007
100.357038881204
100.360450204762
100.365741889341
100.363264235419
100.364714924028
100.36700197509
100.367746972802
100.368641072861
100.369317342545
100.370043828106
100.370763673304
100.371451638228
100.372029981806
100.372659165786
100.372862968652
100.372671429345
100.373737651421
100.372167516917
100.375466728926
100.37551506031
100.375140629426
100.375129771778
100.375132052955
100.375207058801
100.375269385257
100.375049956649
100.374569504824
100.373630253879
100.372408913118
100.371447763646
100.36811791556
100.370061521999
100.373843794254
100.376709254076
100.372823008491
100.368510817212
100.365084948639
100.365665105605
100.348773901828
100.354829205889
100.349982202926
100.356018458735
100.355902824872
100.35594288496
100.361370987503
100.36160614432
100.358627146008
100.357815256252
100.35346013722
100.356256625172
100.358948473333
100.360560588568
100.36214873464
100.363381732141
100.36159942946
100.361027203499
100.366848232893
100.372395565313
100.373251706741
100.37445972852
100.374845193184
100.374992737038
100.375076593028
100.375173334186
100.375457661691
100.3757236749
100.375977400826
100.376240915428
100.376493299747
100.376745989909
100.37700255786
100.377272735673
100.377141787112
100.377346056535
100.377433698419
100.377658964095
100.377778656138
100.377798345725
100.377920680376
100.37803639322
100.378178247442
100.378237723055
100.378353952289
100.378535338134
100.378699701632
100.378939885107
100.378998968243
100.378978885862
100.379018717837
100.378990219847
100.378911725432
100.378649715792
100.378726862111
100.378788803578
100.379015190632
100.379075579756
100.379184851675
100.37906915308
100.378750617781
100.378435195152
100.378247304829
100.378042425931
100.377801636852
100.377404512595
100.376938378006
100.376259143782
100.376089112168
100.375807759368
100.375773542771
100.375686245868
100.375655705782
100.375508605788
100.375770302432
100.375602287533
100.375790467626
100.37567576218
100.375544235247
100.375343566743
100.375461938853
100.375262156887
100.375152641627
100.375013414177
100.374843555367
100.374643374143
100.374388366957
100.374418393752
100.374159638151
100.373911565231
100.373671197655
100.373413483272
100.37312263253
100.372814204521
100.372377348054
100.372642152034
100.373014056011
100.373301427686
100.373568717412
100.373827495804
100.374077804645
100.374332194792
100.374213542209
100.374329602619
100.374550462614
100.374757226436
100.3749961764
100.37513136391
100.375320123694
100.375172442023
100.375265936865
100.375481467413
100.375608769206
100.375470968741
100.375378913785
100.375271702287
100.374967581521
100.374434529344
100.374084101597
100.373882323085
100.374306959498
100.374669252283
100.374824498106
100.375781169985
100.377612878205
100.377731561088
100.377934243496
100.377806121292
100.377995357793
100.378150722763
100.37830779736
100.378366701144
100.37849539131
100.378608169845
100.378819704888
100.379105418446
100.379115926344
100.379167833752
100.379045304293
100.37880799443
100.378688107997
100.378506177797
100.378089068812
100.377671063789
100.377357460924
100.377082500419
100.376476062976
100.376200876572
100.375736585675
100.375800110063
100.375628156745
100.375711850743
100.375770108699
100.375879165721
100.375781140494
100.376049782646
100.375876401023
100.376014768615
100.375897461129
100.375835519228
100.375635011239
100.375693795757
100.375526963161
100.375389246206
100.375252592455
100.375122637672
100.374932406383
100.374853632407
100.374643887103
100.374422425042
100.374174660162
100.373935459853
100.37368707546
100.373382667851
100.373060318613
100.372735736082
100.372372228902
100.371915263579
100.371573557646
100.371954075225
100.372406725443
100.37264766649
100.372997523745
100.373314155234
100.373604765759
100.373861198061
100.374123819099
100.374374923501
100.374634534448
100.374862260613
100.374781511411
100.374938104248
100.375088595955
100.375223074546
100.375395870841
100.375612005466
100.375532607914
100.375581600744
100.37569644105
100.375898313661
100.375764703278
100.375756506675
100.375518895654
100.374966103916
100.374509277137