/*--------------------------------*- C++ -*----------------------------------*\
| =========                 |                                                 |
| \\      /  F ield         | OpenFOAM: The Open Source CFD Toolbox           |
|  \\    /   O peration     | Version:  v1612+                                |
|   \\  /    A nd           | Web:      www.OpenFOAM.com                      |
|    \\/     M anipulation  |                                                 |
\*---------------------------------------------------------------------------*/
FoamFile
{
    version     2.0;
    format      ascii;
    class       volScalarField;
    location    "1.5";
    object      p;
}
// * * * * * * * * * * * * * * * * * * * * * * * * * * * * * * * * * * * * * //

dimensions      [0 2 -2 0 0 0 0];

internalField   nonuniform List<scalar> 
81489
(
99.9979974706671
100.002821592231
99.996032400011
100.000300947774
100.005616098751
100.002290177103
100.001912597177
100.001964800787
100.002134990238
100.001751015319
100.002356236794
100.00544254757
100.00928694231
100.008121501931
100.006323665948
100.007328231704
100.004475768054
100.002092392703
100.0021104881
100.004489382329
100.007302136165
100.006279706868
100.008087248004
100.009241385137
100.005420458861
100.002325480991
100.001719897348
100.002109712257
100.001937269524
100.00188111354
100.002256317918
100.005595649118
100.009406650995
100.008253933757
100.006315401915
100.007327296282
100.004515591129
100.002155618066
100.002138789356
100.004502380693
100.007350843557
100.006362457216
100.008293266248
100.009445810678
100.002604108041
100.001892229537
99.9976151312331
99.998126322894
99.9994831757253
99.9999022548611
99.9999299918818
99.999505875982
99.9981072789054
99.9975800433967
100.001862198953
100.00257567996
100.000298388158
99.9992317651711
99.9999322460579
100.000170295639
100.000123854106
99.9997977893277
99.9994589534536
100.00043429646
100.002566827691
100.001840399027
99.997556344824
99.9980668482969
99.9994632839082
99.9998881473004
99.9998583219218
99.9994331948128
99.9980897102773
99.9975943210118
100.00187194053
100.002593123987
100.000437182191
99.9994727446011
99.9998144546553
100.000141707842
100.000188720858
99.9999479809398
99.9992473807331
99.9960091995935
99.9981414523006
99.9980501083984
99.9867459142218
99.9891405276586
99.9892741524902
99.9995835257717
99.9942046221352
99.992289812207
99.9947103943001
99.9968667531225
99.9968969238408
99.9947132257365
99.9922406584512
99.9941639737348
99.9995535638752
99.9995630493882
99.9960363989208
99.9959979874297
99.9981356506812
99.9969805136323
99.9969570196923
99.9981852628248
99.9960814641616
99.9959230013954
99.9995154953154
99.9995638612267
99.9941516539635
99.9921943988677
99.9946655206565
99.9968522836408
99.9968242672789
99.9946534284236
99.9922385614359
99.9941902638777
99.9995931731401
99.9995500938313
99.9959214469456
99.9960943130045
99.9981923140349
99.9969746865421
99.9969990298222
99.9940609977959
99.9940127220317
99.9867897698569
99.9569896373006
99.9569092482571
99.9513106358672
99.9522831843953
99.9574483863736
99.9878306751573
99.9948606636777
99.9941952750862
99.9941911414554
99.9947866934891
99.9974184085973
99.9892729756255
99.989102704113
100.002833192264
99.9980431313296
99.9940339821554
99.993988141368
99.9977664879672
100.002414339899
99.9890940864554
99.9892774352572
99.9877750716371
99.987812900953
99.9892820497807
99.9891322895007
99.9514464688877
99.9512250792005
99.9527315387331
99.9527186019501
99.9512033754266
99.951730164044
99.9525554409428
99.9525763923269
99.9574975236381
99.9877947875762
99.9818940874582
99.9651846636056
99.9587531638648
99.9585916975051
99.9561345941048
99.9571896157115
99.9517476406698
99.9523828090657
99.9513646551417
99.9569347950219
99.9867179759463
99.9867617866517
99.9570158675715
99.9514980921452
99.952462193398
99.9575408513544
99.9574921790756
99.9523650174077
99.9517514127689
99.9572087645123
99.9570772675901
99.9563508638384
99.9563580843031
99.9570989446008
99.9572151770468
99.956140774571
99.9574570629512
99.9574521249074
99.9580789342294
99.9580426531003
99.9570893671062
99.9512223548281
99.952742959603
99.9527582151601
99.951247196097
99.9517688216679
99.9526145851645
99.9525929492013
99.9561590491475
99.9574726257573
99.9581039084712
99.9580501934363
99.9575382796134
99.957537957788
99.9580576862723
99.9580943481554
99.9560049421347
99.9558178953328
99.9558176544536
99.9560012346113
99.9559496812577
99.9558222402514
99.9575277399615
99.9563601061814
99.9563526392048
99.9570688708325
99.9571818088187
99.9561532332331
99.9574663400919
99.955843508387
99.9558466403597
99.9560358418745
99.9559781080445
99.9558467825082
99.9558377068448
99.9559635451008
99.9535926341636
99.9536146837824
99.9535346698713
99.9535327341484
99.9536061708526
99.9535769070391
99.953547106062
99.9535582200474
99.9558299676567
99.9575270446144
99.9580374428908
99.9580809441186
99.9560188996445
99.9536397574655
99.9535773197799
99.9535823320462
99.9536574488955
99.9536265001143
99.9535831403634
99.9535677628285
99.9516363363869
99.9516474653131
99.951646726736
99.9515739963583
99.951569727793
99.9516298892128
99.9516297911285
99.9516043967044
99.9516186503409
99.9516609131905
99.9536016448303
99.9559643046741
99.956531913822
99.9539036977341
99.9519379937435
99.9516850695144
99.9516405214118
99.9516515612555
99.9517156782507
99.9517046181173
99.9516561399927
99.9498960580721
99.9498691524281
99.9498615493317
99.9498408726671
99.949777500819
99.9497720873288
99.9498098378583
99.9498233070637
99.9498180880789
99.9498418745036
99.9498808095968
99.9499027499504
99.9498879272457
99.9499077862924
99.9499512968338
99.9499456566646
99.9480498217624
99.9479861551227
99.9479437065099
99.9479114521482
99.9478773498295
99.9478069435177
99.9478051139102
99.9478286514132
99.9478498094961
99.9478649780425
99.947909387895
99.9479585717344
99.9479863571875
99.9479949513345
99.9480333023147
99.9480528752788
99.945813766621
99.945776455709
99.9456551151311
99.9455832244748
99.9455318599232
99.9454754902682
99.9453596521728
99.9453642196417
99.9454299758087
99.9454482227231
99.9454624216861
99.9455398730975
99.9456305172741
99.9456578168924
99.9456711789911
99.9457535881283
99.9426177757668
99.94271189979
99.9426233175362
99.9424442831502
99.9422818262162
99.942197743694
99.9421067360644
99.9419544215396
99.9419584044744
99.9420618454924
99.9420944124577
99.9420945406242
99.9422353116187
99.942384589331
99.9423982909682
99.9424420467949
99.937522231449
99.93778066314
99.9376418917555
99.937382548608
99.9373761726799
99.937143075607
99.9368505133906
99.9366294371768
99.9367638665156
99.9367292189702
99.9365246720105
99.9366352431383
99.9369450876874
99.9372004617578
99.9371242158102
99.9371465643021
99.9227523987405
99.9243881183459
99.9244076050177
99.922974684639
99.9226746686095
99.9243364813306
99.9239799864464
99.921962812455
99.9215422927327
99.9228205442682
99.9226128426862
99.9210995307966
99.9214144886955
99.923127040863
99.9235252873268
99.9224287142593
99.9364505679892
99.937424220042
99.9343149590584
99.9342342158378
99.9375115374516
99.9370254274415
99.9333153189212
99.9327571799991
99.9356856448491
99.9354177534215
99.9317077250353
99.9313500419122
99.9345974023087
99.9345870184197
99.9317488416691
99.9325547098948
99.9915143544513
100.045514083735
100.002595031338
100.003118691253
100.046581432247
99.9930794233677
99.9922599155494
100.046342883405
100.002980851593
100.003322669738
100.046840616928
100.078947379547
100.078369788628
100.045505369458
99.992203018722
99.9926855566084
100.116781436353
100.216525756231
100.174020776392
100.174118523812
100.146086266181
100.138895431023
100.136512020506
99.9997521556861
100.04197249983
100.071862140489
99.9881538308738
99.9875766933923
100.041068989984
99.9986196977591
99.9998888225272
100.043751366274
99.9906801378966
100.076747225344
100.077347477473
100.171840656998
100.145722119061
100.14044778432
100.139420706115
100.145200465266
100.172628075408
100.172916591192
100.145905188609
100.140480110178
100.141326327659
100.147245400964
100.239504560094
100.278293330277
100.257063464893
100.257390771592
100.279185455549
100.266564450221
100.23803858917
100.33382378992
100.36963695555
100.343272782738
100.331785674016
100.330810677159
100.335466365317
100.27071021795
100.233366579895
100.266041008504
100.329888576136
100.363837524362
100.386472130401
100.394617814956
100.397516963024
100.402380139438
100.404709414087
100.405045549383
100.404884185524
100.404583676064
100.404216095071
100.403856036101
100.403625723999
100.403455033139
100.402932030121
100.40188050333
100.401007636398
100.401028151912
100.402279593418
100.40554962384
100.41224390389
100.4241021911
100.444583381652
100.469622937901
100.507309714495
100.500034093742
100.435187645561
100.376219555464
100.315960073177
100.282201218409
100.304226020664
100.303813918426
100.301303626143
100.301554890869
100.302683316208
100.303839707452
100.30515452963
100.306853877828
100.308892625255
100.311040314343
100.31299879911
100.314485939489
100.315268551091
100.314322150894
100.313003157336
100.311413811087
100.309636036933
100.307756440155
100.305806270134
100.303856468774
100.302055173305
100.300536721679
100.299346223892
100.298474423585
100.297871935152
100.297468118467
100.297203617439
100.297034661662
100.296933453023
100.296904803752
100.296959092963
100.29712370826
100.297473913414
100.298077927586
100.299166119273
100.300636188686
100.301957895824
100.302380391194
100.302311547225
100.302413400827
100.302329450003
100.302492187171
100.302383115578
100.302422746477
100.30234391376
100.302244699369
100.302019951491
100.301752983919
100.301755993567
100.301779911498
100.30213433238
100.302102782552
100.302044218599
100.302242777643
100.302335369105
100.302397549426
100.302376004932
100.302461624663
100.302331593669
100.302384457004
100.302297458109
100.302346427882
100.302002590516
100.301271421058
100.302127365934
100.302345621605
100.302311872505
100.302374029103
100.302340351914
100.302450132483
100.302377688862
100.302386649193
100.302334189128
100.302235490161
100.302254338178
100.302085666443
100.302188329115
100.302373252403
100.30235726179
100.30240573599
100.302345382597
100.302387583437
100.302386624344
100.302448841537
100.302352922632
100.302372486028
100.302319352192
100.302344968805
100.302117974531
100.301752542708
100.302271177871
100.302358567113
100.302354490357
100.302388320987
100.302377889118
100.302451731916
100.302413507326
100.302411868715
100.302424279445
100.302424809903
100.302486866385
100.302463833876
100.302406386668
100.302093652444
100.301852418437
100.302130859397
100.302410995566
100.302343108152
100.302538279285
100.302582332611
100.302552441972
100.302467876063
100.30252536257
100.302475553696
100.302399574468
100.302408590413
100.302385418429
100.302409108511
100.302300976544
100.302383475297
100.301771172568
100.300979805848
100.302060691136
100.302386453704
100.302366277661
100.302435901449
100.302443752082
100.302436694992
100.302461597707
100.3025307605
100.302555724796
100.302517918833
100.302522019246
100.302625225849
100.302690651285
100.302656708997
100.302540900645
100.302686932813
100.302866545734
100.302795991109
100.302783954093
100.302699306993
100.302571882333
100.302557751025
100.302594289269
100.302531000749
100.302487471918
100.302463726879
100.302492810032
100.302490824682
100.30242178024
100.302435187142
100.302095738447
100.30172894422
100.30232097106
100.302496252374
100.302487845035
100.302537470776
100.302536615922
100.302579795966
100.302577519305
100.302635115876
100.302643449193
100.302664699565
100.302811545271
100.302955185232
100.30288124634
100.30296221859
100.302872086039
100.302699764487
100.302734283984
100.30292928374
100.303060207827
100.303069904405
100.302949913892
100.302752933824
100.303004858984
100.303086101777
100.303199258841
100.303269266421
100.303276736872
100.303173270013
100.303117430253
100.302986735755
100.302784787339
100.302785139358
100.302704257034
100.302652149212
100.302632231062
100.302644740527
100.302587910203
100.302548639097
100.302566523949
100.302308619819
100.30221655565
100.302549741405
100.302631035746
100.302617111313
100.302657102242
100.302742430296
100.302701300309
100.302744100393
100.302764117194
100.302801200362
100.302822021719
100.302839085732
100.303048738962
100.303188013776
100.303284607832
100.303255332497
100.303256978051
100.303148157981
100.303129792258
100.302958166122
100.302907853409
100.302863697178
100.30283563745
100.302791120538
100.302741601649
100.302777876052
100.302759863255
100.302768646097
100.302696526209
100.302470810387
100.302598809252
100.302707037403
100.302761735864
100.30284380849
100.302805965392
100.302820490816
100.302893211342
100.302942979706
100.30296035474
100.302996481719
100.303210687113
100.30331973491
100.303310624043
100.3032187479
100.303028815943
100.303258769489
100.303295458421
100.303440116888
100.303432582923
100.303354917504
100.303261198166
100.303083517262
100.303054750815
100.302968273137
100.303008503598
100.302974643305
100.302915638148
100.302918964705
100.302893541785
100.302844553933
100.302885463212
100.302868787646
100.302538850752
100.302566579845
100.302825838869
100.302735422558
100.302966603978
100.30290850628
100.302979621786
100.302947948655
100.303019481328
100.303053404105
100.303094275108
100.30315807403
100.303175585906
100.303326707746
100.303453095799
100.303413295045
100.303448867547
100.30334099353
100.303382134216
100.303491962622
100.303558968557
100.303508079104
100.30366025799
100.303721005163
100.303703960175
100.303594115754
100.3034849226
100.303300404558
100.303204873647
100.303174741968
100.303153077232
100.303109863797
100.303060241963
100.303129451807
100.302996335357
100.303050198547
100.302986282883
100.302911724363
100.302479984725
100.301754131496
100.30090228214
100.30201256506
100.301286725971
100.30048773957
100.29963746624
100.298929377576
100.300312959275
100.2996845767
100.298423874668
100.297674017544
100.29721849024
100.296973805833
100.29687514732
100.296872268665
100.296953471553
100.297107639492
100.297350324979
100.297717467361
100.298263390943
100.299063161992
100.300171422471
100.301621294046
100.303374993263
100.305283258985
100.307169119182
100.308967577436
100.310670191491
100.312204726115
100.313477079735
100.314386202395
100.314867119984
100.31577982164
100.316209084964
100.315691137598
100.314741457872
100.31341782818
100.311815765632
100.310011067354
100.308099732573
100.306129261484
100.304172118862
100.302351859234
100.300794586405
100.299548039673
100.298632998832
100.297989138281
100.297553958086
100.297267675336
100.297081705912
100.296965516513
100.29691469094
100.296939373258
100.297063700607
100.297362355621
100.297902561627
100.298907987721
100.30031584388
100.301796935747
100.302387618075
100.302412788635
100.302451271573
100.302461765736
100.302561936082
100.302431709546
100.302553662138
100.302485856715
100.30241996871
100.302195974016
100.301894036272
100.30177540664
100.301269552759
100.300661043126
100.299852997108
100.299946538187
100.300141179055
100.300365733498
100.300774095508
100.301323121161
100.30124186362
100.300954416967
100.30081675241
100.300725031631
100.301281905029
100.301356871069
100.301494349854
100.301729174928
100.30198960286
100.30219399848
100.301854520035
100.301525771646
100.30108465688
100.300524080867
100.299624444821
100.30014062259
100.300865922034
100.300865289377
100.301378392221
100.301588538281
100.301123357222
100.301526387443
100.301817794441
100.302246233852
100.302199668319
100.302010016424
100.30237774576
100.302529295547
100.302726395264
100.302411750579
100.302070740183
100.301659536765
100.300971531003
100.301394994942
100.301843122569
100.301926841797
100.302415507936
100.302683662879
100.302223007661
100.302417788458
100.302752782184
100.302814682796
100.303083237509
100.302968811385
100.302757272935
100.302878391134
100.302896357571
100.302844472382
100.302729466857
100.30272386859
100.302650411226
100.302614029966
100.302536591072
100.302480192106
100.302411540112
100.302383020377
100.302372845079
100.302348420919
100.302317063013
100.302315491106
100.302305434633
100.302296162057
100.302287546461
100.302394399315
100.302324609004
100.302478691246
100.30231971146
100.302528821155
100.3023969167
100.302478341157
100.302395303092
100.302307222356
100.302057046174
100.30193612035
100.302168970631
100.302357699814
100.302442991914
100.302501184176
100.302540434383
100.302568462724
100.302567205207
100.302515930325
100.302280315611
100.302016252138
100.301465544092
100.300908415129
100.300079232077
100.299946353994
100.298808389678
100.297671042883
100.29577384765
100.295797106403
100.297420235827
100.297649582458
100.298750112537
100.298810752636
100.297701368945
100.29817852233
100.29866560029
100.299203854561
100.297863717317
100.296811315128
100.295243005543
100.296646570861
100.297220162496
100.29796940057
100.298596198938
100.299128138169
100.299919301304
100.300041751516
100.299687005627
100.298927307902
100.298202047847
100.2979846296
100.298668302742
100.298235413271
100.299341530703
100.301604524198
100.301994784237
100.302042972354
100.302012039673
100.301901720916
100.301818127358
100.3017024023
100.301851896116
100.301621406726
100.301554316678
100.30173314958
100.302375843882
100.30242858225
100.302472886097
100.302517961358
100.302472247894
100.302584867725
100.302586836414
100.302568001967
100.30256692509
100.30251977533
100.302251025943
100.302037133651
100.30143482789
100.300892038808
100.300093168125
100.298791098978
100.297739837259
100.295726340222
100.295715858522
100.293162500871
100.290110392818
100.290506897817
100.29103987627
100.292107146958
100.29321628251
100.294229452117
100.292050024311
100.290139383369
100.291923673056
100.293492498335
100.294422751439
100.295675445483
100.295747714281
100.294901683843
100.293495426176
100.292958221451
100.29435331136
100.295741139906
100.296291553345
100.295952856827
100.2973843601
100.298804013295
100.30124515133
100.30175455372
100.301537618077
100.300673437121
100.301346658993
100.301199014724
100.300257708102
100.301113585647
100.301120189035
100.301554715059
100.30173104544
100.302371014643
100.302425708121
100.302470883538
100.302516523095
100.30247220185
100.302544204393
100.302444285479
100.302566285382
100.302503186456
100.302451511709
100.302193593692
100.301956844691
100.301390003573
100.30079775574
100.299999916282
100.29879191292
100.297689893077
100.29577939652
100.293391350588
100.290447982287
100.290128484228
100.286336340183
100.282130727021
100.259915236024
100.25934713935
100.262974667634
100.280207817594
100.282903731523
100.282036229605
100.28627501136
100.286856918767
100.287665410954
100.281581480163
100.285217951596
100.287840982712
100.284280026554
100.279647916892
100.271927472926
100.279356779723
100.284591645246
100.284448582051
100.287188505437
100.289396950835
100.287471008213
100.290512086677
100.292004243529
100.293442572014
100.29462389576
100.294531765761
100.292936618467
100.291612378776
100.29124861691
100.292656088495
100.293891575772
100.294402703692
100.294931798088
100.293010698971
100.294013475457
100.294296242496
100.294494484386
100.2945075357
100.294841972551
100.294429682336
100.292762857121
100.293629879512
100.292502018649
100.295334782295
100.2939091897
100.293744937781
100.294010461586
100.293936120473
100.293492169228
100.294206995358
100.294106504826
100.293710287284
100.292521327735
100.291670093381
100.293499358329
100.292022226232
100.291824632478
100.292061484845
100.292547654873
100.29179609441
100.291603799372
100.2918955336
100.298594515958
100.298068983725
100.297956379115
100.298221976555
100.299672548392
100.30163882658
100.30024201215
100.299911768323
100.300261713818
100.297160624966
100.298387470176
100.297239852512
100.295279653735
100.294746409702
100.296352204081
100.297933157212
100.297001246405
100.29684998557
100.295726305024
100.294955422746
100.295608403198
100.295703124923
100.298655799426
100.300123920356
100.301624601212
100.302170605502
100.302283479791
100.302228353368
100.301981826294
100.301888415683
100.301580393491
100.301405181129
100.300876178391
100.300253660962
100.299939073097
100.299935501581
100.300325270275
100.301789925685
100.302373487928
100.302405329384
100.302448530338
100.302460211536
100.302561721525
100.302537166237
100.302412581612
100.302503451069
100.302431564982
100.30235792238
100.30212102913
100.301839762549
100.301351924163
100.30073009116
100.299906498746
100.298914470912
100.297689647493
100.295922302448
100.293744596378
100.291053801358
100.287744290372
100.281674298761
100.280335886321
100.263865804019
100.245511213239
100.168390996284
100.18391845264
100.202392881871
100.205733086909
100.201991253485
100.196888681946
100.207339664487
100.203766332491
100.198365601241
100.209456376335
100.205861083891
100.198911986646
100.208709277479
100.20534308282
100.198172764861
100.207509378228
100.204165021894
100.197052224418
100.206112230974
100.202827221135
100.195934431148
100.204020408677
100.201822832882
100.202352654752
100.201756977456
100.200506015769
100.200532903001
100.200764564809
100.200282861271
100.200273500283
100.200621796778
100.200138414521
100.199828547537
100.200360688949
100.200289574623
100.200008957777
100.200077563554
100.200267855848
100.200447978799
100.200910806255
100.200585477387
100.200265714262
100.199984111429
100.200556322252
100.200414050658
100.200084877596
100.199412134236
100.199344534083
100.19997361824
100.200352910364
100.2005172037
100.19996726182
100.200252698906
100.20057700641
100.200905007497
100.200422408874
100.200255383638
100.200086507839
100.200027962868
100.200294964191
100.200368144969
100.199823729391
100.200132508455
100.200614888371
100.200273292944
100.200301329871
100.200713244073
100.200499718157
100.200492209467
100.201747425774
100.202323226707
100.201800468271
100.20398028749
100.203182145735
100.204268487876
100.202607418152
100.201817645486
100.20345141772
100.203142526959
100.201676478905
100.20129075192
100.201565616954
100.199120020482
100.1999289921
100.200392910311
100.200482617306
100.200556243282
100.200297675642
100.199830602252
100.200313412861
100.199526035125
100.199542700347
100.200583296026
100.199616898797
100.201346143552
100.200885478642
100.200801937975
100.200506539396
100.200600030867
100.20046020969
100.200433249151
100.200482609065
100.200942278092
100.200285128104
100.200185131602
100.20015335798
100.200302082458
100.200831861073
100.200387086079
100.200394913442
100.200440828892
100.200557950633
100.200157812269
100.20031016944
100.200779183031
100.20151872627
100.200085191949
100.200104213313
100.199918945773
100.199930821087
100.200136381494
100.200101674672
100.201534641561
100.200792437004
100.200311551975
100.200156179011
100.200560303881
100.200740286389
100.200919295163
100.200915025088
100.20073703517
100.200607078918
100.200650987591
100.200646210607
100.20059874315
100.200717557372
100.200384934392
100.200398955604
100.200449326744
100.200975464758
100.200135061466
100.20035955189
100.201836326755
100.201341755225
100.201541994058
100.20115514576
100.2023218681
100.201666477955
100.200867654448
100.201239868296
100.201505569413
100.20152364528
100.201241593662
100.200865347424
100.201656329953
100.202354198651
100.201139360714
100.201522210712
100.201351206265
100.201836969214
100.200871244397
100.202642275991
100.201932425234
100.201824179506
100.200778976681
100.20069589927
100.200036850279
100.201120122627
100.199763131216
100.200864674754
100.201444799654
100.200425461956
100.201669402649
100.201215833063
100.203114968144
100.204098157776
100.201053871221
100.195934534
100.202776889054
100.206065032801
100.197027431392
100.204082073498
100.207424628522
100.198106937744
100.205203405348
100.208576426491
100.198753295961
100.205618572064
100.209301461351
100.198111692957
100.203471707471
100.206737252464
100.196225691853
100.201490390905
100.202107681912
100.199668009395
100.196692706132
100.196914490823
100.202310403976
100.199601281868
100.197549641925
100.193545079872
100.198334092357
100.198351325656
100.193637107141
100.185893666591
100.185880206893
100.164580523122
100.237582470439
100.236616729677
100.164973992835
100.168519291877
100.183680288897
100.201724181709
100.204746619462
100.193636125397
100.188429881779
100.193584798286
100.191747177447
100.1977594119
100.205994130908
100.201952141892
100.202209303643
100.206240661555
100.203074596931
100.202407217515
100.204984475787
100.202277938062
100.201722441735
100.203398398749
100.201168482117
100.200875245042
100.201851351302
100.199969926005
100.203782325976
100.202838781808
100.201105102788
100.201666291246
100.203009218459
100.201659307727
100.201288102157
100.200398978252
100.202592506834
100.202670320796
100.200211117258
100.204195562352
100.204716919327
100.201690644394
100.205062194978
100.206360310146
100.202802353239
100.206166252502
100.207256443843
100.203618135677
100.201474407115
100.186563915573
100.176411752898
100.177808243739
100.186969206734
100.184523726706
100.183320945477
100.190835547319
100.178924985097
100.182248763283
100.176403813164
100.176589364246
100.183705079887
100.229168303733
100.254411232586
100.230818253446
100.159559283174
100.160995125558
100.185457251566
100.152188347907
100.136662937785
100.205423139825
100.247659815736
100.270648563629
100.279864306969
100.285765232531
100.287992837469
100.287690789721
100.283018117475
100.27524903818
100.261595541318
100.268424256729
100.276917699846
100.284326525796
100.287905615118
100.29108070771
100.293743425008
100.293787855125
100.296451738256
100.29801901344
100.297274352222
100.297065174913
100.297086559389
100.297316200251
100.300265563385
100.300655392135
100.301832001518
100.302366439154
100.302309990059
100.30246426835
100.302321573313
100.302321181092
100.30249777775
100.302395668413
100.302445020268
100.302378260941
100.302287735595
100.302077707623
100.301808545797
100.301361156901
100.300803635841
100.300019828537
100.299054992209
100.297904438535
100.29621844915
100.294377818382
100.29214420704
100.289396640316
100.285294524272
100.280986793431
100.274447331602
100.254656789471
100.228968464131
100.183795214255
100.177048781059
100.176634516297
100.182701486525
100.193940846083
100.188470074799
100.193096784228
100.192144552132
100.198132374629
100.206013924428
100.201929310665
100.202244708057
100.20627853214
100.203094935797
100.202478139416
100.205030033381
100.202286194422
100.201765305397
100.203431380929
100.20117358982
100.200902152436
100.201825608456
100.199989516371
100.201822407736
100.20412116911
100.203157404711
100.201702253978
100.20129223447
100.201596609886
100.201833072438
100.203466387159
100.203197039659
100.204315930212
100.202623550331
100.202225184806
100.202920666949
100.201340115184
100.200825565122
100.202159587494
100.203838146461
100.202872398997
100.201128717465
100.201687561402
100.200430217299
100.201460611598
100.200867258748
100.199766299292
100.201144344792
100.200034710638
100.200693163072
100.200777648189
100.201835670207
100.201949344476
100.20264486978
100.200892359216
100.200214201788
100.200864037709
100.200209648165
100.200782395348
100.200427565095
100.200854083991
100.201494692488
100.201070900587
100.200456439577
100.200559279214
100.202971251324
100.205055008782
100.202698818402
100.201842132354
100.202000481142
100.202416288537
100.202161182204
100.202658604479
100.202633499536
100.202141531339
100.20238124167
100.201977311418
100.202664766029
100.205067093947
100.20298689591
100.202978832283
100.203826244839
100.202876035425
100.201969211701
100.201901226541
100.202306040689
100.201379760158
100.200558925484
100.20198911644
100.201290687319
100.200082648563
100.202540783575
100.202909787687
100.202148749643
100.201905129253
100.202682813215
100.204363137626
100.203605674067
100.202509490588
100.203394221114
100.206313315596
100.205592975639
100.202271191547
100.202952842347
100.208003531085
100.208545738271
100.201493263495
100.188823262863
100.182992599322
100.177336877178
100.180388441084
100.181314009247
100.184949809591
100.185727723332
100.181992731301
100.174208483031
100.173729870545
100.174291107174
100.170383244558
100.159504298532
100.162538435215
100.178190952606
100.175689692143
100.177226453763
100.195985415807
100.198167747588
100.210710403115
100.229200588128
100.217701087064
100.223025338165
100.242784426898
100.261592547433
100.244151405697
100.264644257785
100.275990507548
100.280953836304
100.274430435475
100.273654535035
100.281318196476
100.287029764192
100.290657164323
100.293362780852
100.292808489242
100.292216086652
100.291774271909
100.297012480776
100.297688877737
100.298130776707
100.296262775755
100.296987881266
100.298915785096
100.297001237152
100.298855559669
100.299516721378
100.301178774059
100.301418162136
100.301212070581
100.301908463134
100.299459743985
100.300369881946
100.300346229452
100.299717373732
100.30022152739
100.299620705835
100.299632359355
100.29954450555
100.299544968042
100.299633237372
100.299964084617
100.300015419509
100.300228733752
100.300410255683
100.300301854277
100.29986017929
100.299327515599
100.299196866877
100.299493406052
100.29965373299
100.299760960677
100.299656786047
100.299651089826
100.299707290136
100.299604733919
100.29961595429
100.299469460505
100.299393645105
100.298757254325
100.298970734268
100.299171840984
100.299497181093
100.299794481837
100.299802502742
100.29948889625
100.299255364413
100.299562740679
100.299757879045
100.299637876597
100.299474872485
100.299895507151
100.299636972486
100.299456572375
100.300330384712
100.300891585818
100.300459062112
100.300511301421
100.300169744956
100.29973896419
100.299557160378
100.300181549052
100.300716053721
100.300683739123
100.300197641777
100.30044756932
100.300858809127
100.300805833739
100.300692464755
100.300236530669
100.300305846625
100.300785272382
100.300838014308
100.30099120861
100.300984300524