/*--------------------------------*- C++ -*----------------------------------*\
| =========                 |                                                 |
| \\      /  F ield         | OpenFOAM: The Open Source CFD Toolbox           |
|  \\    /   O peration     | Version:  v1612+                                |
|   \\  /    A nd           | Web:      www.OpenFOAM.com                      |
|    \\/     M anipulation  |                                                 |
\*---------------------------------------------------------------------------*/
FoamFile
{
    version     2.0;
    format      ascii;
    class       volScalarField;
    location    "1.4";
    object      p;
}
// * * * * * * * * * * * * * * * * * * * * * * * * * * * * * * * * * * * * * //

dimensions      [0 2 -2 0 0 0 0];

internalField   nonuniform List<scalar> 
80212
(
100.338463687876
100.337851204611
100.337801366125
100.340558919955
100.344109834367
100.344085614008
100.344402203064
100.34432306213
100.344843746719
100.346354481099
100.345680765495
100.344717381573
100.345030948063
100.346150014863
100.346771494209
100.344993862092
100.344422561672
100.344408073276
100.344089416951
100.344104189395
100.344672412698
100.344900262112
100.345778907096
100.347533332344
100.345939489803
100.343871714529
100.342922599072
100.342743616102
100.343176102525
100.343543965732
100.346150445412
100.345939079032
100.345193604289
100.344809388991
100.343376951771
100.343673724491
100.344399794198
100.343617436048
100.345068256766
100.347037365828
100.346958523552
100.34498364186
100.343568535624
100.344383231991
100.343663160714
100.343361408686
100.344787683603
100.34517413515
100.345910353846
100.346144994717
100.343542112624
100.343178045496
100.342753205602
100.34293339505
100.34388255934
100.345949913952
100.347542205877
100.345786865837
100.344912756074
100.34468521188
100.341593523377
100.341909455127
100.341363234663
100.341604887962
100.341344336836
100.341248415702
100.340812009892
100.34054744011
100.341040976262
100.340988939056
100.341341164409
100.341255724402
100.341043436906
100.34156812598
100.3408759637
100.340425011763
100.340670946991
100.340656223616
100.340729258664
100.340458730178
100.340452223271
100.34072193303
100.340646952079
100.340666689092
100.340439188136
100.340912175571
100.341604585576
100.3410748542
100.341272563349
100.341345464886
100.3409843845
100.34103366608
100.340536514778
100.340803981987
100.341237876178
100.341330131962
100.341592827971
100.341351342258
100.341894184998
100.341579220515
100.34055657358
100.340647974976
100.341831495612
100.342251947239
100.341695157176
100.342332727895
100.341822142599
100.341581544646
100.341744179873
100.34212722308
100.342514410158
100.341754854931
100.342291631713
100.341860138832
100.340662597647
100.337893405934
100.339485257378
100.337043620051
100.33712457825
100.337264848326
100.339979439118
100.338300793084
100.336327223283
100.337389124347
100.338338815638
100.338456385264
100.33816141502
100.339093582721
100.33928376555
100.338172332283
100.338503570045
100.338394198798
100.338350113335
100.338060098403
100.336923364473
100.336304492084
100.338149681356
100.337493111528
100.336533254899
100.336523269639
100.337495674625
100.338124057434
100.336278935457
100.336924423976
100.338112451486
100.338405988445
100.338446428433
100.338531837688
100.33817723608
100.339275732061
100.339084601144
100.338151688203
100.338446727935
100.3383271347
100.337376434671
100.336312118186
100.338287744152
100.339960445482
100.339134557211
100.337793364577
100.337860535519
100.339428606952
100.34057386478
100.338732314707
100.336826873867
100.337584445821
100.338394872294
100.33848879908
100.337779423419
100.337014770529
100.33888772636
100.340669763844
100.337054982272
100.327882921843
100.328442142149
100.328586477448
100.32814284877
100.328982774134
100.337334621754
100.337716717541
100.337747574594
100.338589469872
100.340293463229
100.337699216267
100.336902798373
100.33571243707
100.338928941435
100.336658751132
100.336098985218
100.334766412455
100.335915914508
100.335398347681
100.339323231236
100.339367737943
100.335426233551
100.33600032693
100.335124784058
100.336241929854
100.33471965089
100.337320876205
100.337833589693
100.338354294679
100.336795465404
100.339047811572
100.335739699739
100.336891707516
100.337687823212
100.337313364025
100.337239261897
100.337102119764
100.337038566469
100.337059265085
100.336858000097
100.33683234517
100.328785658744
100.327267900078
100.326980483027
100.327253750512
100.327287991451
100.327058220081
100.327416198167
100.327509562234
100.328867075692
100.32874774997
100.328935195386
100.329967748989
100.335119730855
100.334518083084
100.331153827183
100.329475403196
100.328385013489
100.328475300144
100.330325804572
100.329868109093
100.329832744542
100.330246403069
100.329864170979
100.328847836579
100.32869812552
100.328832121728
100.328959071955
100.328124013982
100.328575107433
100.328444000032
100.327905774957
100.328816341083
100.327270605934
100.327838958891
100.327844643343
100.327824466591
100.327952724489
100.327968080412
100.327899599768
100.328011824187
100.328116591639
100.328289892126
100.327681658198
100.327993816603
100.328247652854
100.32828782829
100.328267278527
100.328556213288
100.32882860582
100.328776442939
100.328346898388
100.328253151724
100.327897779442
100.327622057463
100.327466274097
100.327381025975
100.327028367881
100.327273672687
100.327240125121
100.326967645648
100.32779663524
100.327649706288
100.327665259806
100.327675450362
100.327675660131
100.327786085851
100.327807246967
100.327792887282
100.327864402779
100.327861502126
100.327979398552
100.327855820776
100.327820963562
100.327766355556
100.327870511079
100.327869113993
100.328538892322
100.32817773392
100.328186829575
100.328180359485
100.328245515842
100.328072840793
100.327967570948
100.327863505874
100.327933120489
100.327922317252
100.327746050199
100.326716680383
100.326645873704
100.32668685454
100.326700230329
100.326686238356
100.326775315775
100.326804350898
100.326804947691
100.326901379764
100.326870182396
100.326936875502
100.326859966333
100.326868297921
100.326831775061
100.326874917703
100.326874649546
100.326833160266
100.326864968053
100.327806737703
100.327811555462
100.327928506936
100.327807694522
100.32780290539
100.327737770182
100.327754103661
100.326726618061
100.325534013437
100.325516490955
100.325476777136
100.325526906539
100.325549554975
100.325542027674
100.325614477737
100.325655897691
100.325669588887
100.325784832988
100.325784385869
100.325847003576
100.325817230092
100.325866546871
100.325855906647
100.3258866379
100.325862898199
100.325801926014
100.325789100872
100.325710313737
100.326812222649
100.326873997629
100.326783210772
100.326810820013
100.326720495448
100.325530898517
100.324388464111
100.324377257694
100.324356417367
100.324326974039
100.324390084354
100.324429952875
100.324438005119
100.324519975403
100.324579683188
100.324610173551
100.324755258436
100.324787211922
100.324863298319
100.324865608894
100.324942031241
100.32494624081
100.324983648186
100.324959975783
100.324876341953
100.324826198266
100.324709555328
100.324688041275
100.32458206651
100.324535695607
100.323369467335
100.323164089723
100.323147471013
100.323121392631
100.323082017592
100.323180378696
100.323247892759
100.323275070804
100.323390473254
100.323476186706
100.323520400609
100.323716173982
100.323784185139
100.323883150613
100.323914167434
100.324035216114
100.324049986306
100.324124048344
100.324121095549
100.324041898959
100.323950223055
100.323718678319
100.323613722097
100.323465201415
100.322114642653
100.321934131743
100.321653031644
100.321650695338
100.321622280597
100.32153983653
100.321722838492
100.321835055934
100.321875643043
100.322058374995
100.32218311083
100.322213079848
100.322484186463
100.322611585671
100.322754344181
100.322845374001
100.323053403762
100.323062704301
100.323250105338
100.323240315445
100.323046777803
100.32291915597
100.322552536603
100.322339228511
100.320629820193
100.320313344883
100.319985702255
100.319515705708
100.319612167469
100.319614166732
100.319421461984
100.319803507444
100.319983533453
100.320007728981
100.320307827545
100.320467050756
100.320389438708
100.320827184888
100.321051731799
100.32125893513
100.321493657509
100.3219353835
100.321837802412
100.322212840985
100.322158437754
100.321700041697
100.321635499201
100.321016739579
100.318835796413
100.317892693719
100.317434532165
100.316973463334
100.316175576328
100.316461538228
100.316555826875
100.316180754373
100.317034283166
100.317326500007
100.317170907457
100.317751518753
100.317899114025
100.317616497259
100.31834188155
100.318575253173
100.318836995577
100.31955459613
100.320456711319
100.320025637832
100.320887907747
100.320784238482
100.31971114239
100.319975658757
100.318396156959
100.315659159711
100.311956896973
100.312130609411
100.311469509819
100.309796285671
100.310837437433
100.31099129367
100.310311161221
100.312191848867
100.312718015662
100.312011672846
100.313171075236
100.313226358974
100.312249922477
100.313741664768
100.313864227187
100.313413563307
100.316794294146
100.318939129922
100.317523597907
100.319344506264
100.319169914063
100.317004322935
100.314611684606
100.309271715572
100.303846792106
100.302126354717
100.304990018535
100.304045991619
100.300457465143
100.302762359212
100.303175309457
100.301976636377
100.30541027381
100.306469460447
100.304849172976
100.306913449826
100.306691300552
100.304398499184
100.307489420233
100.307808921825
100.304250066225
100.305332910291
100.310357379123
100.315310621225
100.310486848298
100.30916372153
100.30887847893
100.309889607219
100.323654955935
100.324735568396
100.322579381024
100.316045533119
100.316232495401
100.313827576277
100.31067043606
100.312746098323
100.313625580718
100.313767947373
100.316372878309
100.318050567445
100.318410336506
100.319470143193
100.318683859125
100.316413399613
100.318543653129
100.319837422526
100.318913754225
100.324398341437
100.326024529419
100.324075976641
100.32938804348
100.32904356092
100.368242105086
100.364059338861
100.359663414399
100.357891197327
100.351129973621
100.347086382353
100.343060265502
100.345558214858
100.341501113116
100.344560354938
100.34707313566
100.358909158734
100.381027426399
100.384940531564
100.365797821766
100.348734649319
100.344751824978
100.393261466972
100.430325094648
100.414334555155
100.421092920035
100.433109074082
100.418634926458
100.404163363979
100.355451285732
100.352966619508
100.34972948978
100.353509698351
100.349086603505
100.351325386497
100.35419809926
100.359784981298
100.361047303491
100.36448836437
100.368383920941
100.410144974154
100.410210421114
100.425795557197
100.413946972758
100.405003831709
100.400031158886
100.395511146874
100.402136147254
100.382724277887
100.377838004076
100.39311407672
100.382344545867
100.392255515435
100.397372819601
100.403151888339
100.415791843459
100.44863737156
100.449426376783
100.457618136914
100.469770757792
100.446975787727
100.446780928763
100.439875981772
100.40439354384
100.392825270379
100.412791610859
100.44352134517
100.462066197069
100.474864237009
100.479107251356
100.480367756516
100.483105426112
100.485016887387
100.485798095527
100.485570152514
100.485200391666
100.485511008921
100.486122265423
100.486575410956
100.487031037511
100.487470948295
100.487861487299
100.48767009897
100.486857901519
100.48625035612
100.486376515564
100.487046337531
100.489443168619
100.491169425706
100.49522322659
100.501104581346
100.518944310519
100.51508026142
100.470133599157
100.427307115753
100.381576855009
100.35615019934
100.372565595665
100.372762453913
100.370944975354
100.3710283038
100.371975358856
100.372988253866
100.374049790037
100.375290911549
100.376663948144
100.378000198488
100.379131857512
100.379940600177
100.380341732111
100.379721220693
100.379006410236
100.378191294224
100.377275385628
100.376239059072
100.37500964612
100.373552405459
100.371937905977
100.370289449907
100.368766934601
100.367486755156
100.36646984448
100.365665204969
100.365036173716
100.364601366818
100.364448864126
100.364654890075
100.365329683906
100.366586825553
100.368333840049
100.370144449291
100.371551752248
100.372095634138
100.372041905927
100.37210043245
100.372086063132
100.372100240259
100.372128480006
100.372139957324
100.372174890459
100.372258573747
100.372455328647
100.372622873161
100.37268986564
100.372757313797
100.372703195006
100.372473115378
100.372355221211
100.372272851785
100.372285240474
100.372437862771
100.372340689798
100.372164912976
100.372108746318
100.372076301523
100.372047893302
100.372054298678
100.372018983233
100.372017061631
100.372027166096
100.371993729503
100.371874070654
100.37191367984
100.371965658224
100.371966377491
100.371966361621
100.371991303767
100.372019132746
100.37203595268
100.372056969812
100.37222653219
100.371997485713
100.372048252399
100.372054794383
100.371916427207
100.3718924851
100.371946612897
100.371941255056
100.371902368166
100.371891051067
100.371885804402
100.371877619437
100.371805599295
100.371787585064
100.371524754503
100.370947447221
100.371501528368
100.371761450611
100.371746194362
100.371803486083
100.371801854756
100.371820271825
100.371829090887
100.371864432057
100.371817038206
100.371916593596
100.372006561888
100.372018412102
100.37186168934
100.371857641236
100.371840278417
100.371748582049
100.371631626475
100.37166248167
100.371605287412
100.371779676265
100.371829164907
100.371824382188
100.37176984912
100.371782650034
100.371743371422
100.371755120865
100.371732046076
100.371740156743
100.3716870653
100.371686401309
100.371450914042
100.370721326261
100.37142488315
100.371657813669
100.371646905506
100.371687644591
100.371672811095
100.371678763181
100.371695131592
100.371704767177
100.371683581827
100.371742232463
100.371710161712
100.371513168536
100.371540842046
100.371622764797
100.371499632844
100.371580995204
100.371511436593
100.371657827781
100.371612451069
100.371651486118
100.371655169351
100.371623447178
100.371655267534
100.371634918393
100.371633563525
100.371611989869
100.371610398499
100.371399500994
100.370666913782
100.371415772568
100.371606270447
100.371596004251
100.371604013383
100.37160992281
100.371597809344
100.371597518348
100.371580220401
100.371527861942
100.371551959465
100.371510293728
100.371492155398
100.371448636851
100.371228872672
100.371095439784
100.371001116253
100.371263730445
100.371147102412
100.371382044915
100.371459738963
100.371486294302
100.37152241053
100.371569755901
100.371571648476
100.371588776787
100.371581388501
100.371581244382
100.371590898548
100.371425218009
100.370611930437
100.371514541309
100.371583809471
100.371576856352
100.371556568462
100.371566234197
100.371526202662
100.371578728154
100.371559670453
100.371474965492
100.371458311606
100.371398695752
100.37125472471
100.371170305811
100.371394276467
100.371454244247
100.37150065657
100.371469318468
100.371406592732
100.371241521334
100.371070743224
100.370635132141
100.370243535326
100.37072409033
100.370673576724
100.371154759678
100.371030159372
100.371284383785
100.371434688275
100.371487886701
100.371558348048
100.371555109364
100.371538192672
100.371515046533
100.371573447494
100.371582386893
100.371556590118
100.371576350085
100.371549220329
100.371301761155
100.370267905597
100.368694320911
100.370574648763
100.371426596555
100.371534625412
100.371572779008
100.371561676065
100.371580425
100.371569060984
100.371519155886
100.371596844758
100.371616370118
100.371506335435
100.371507787109
100.37144604981
100.371300499242
100.371108093279
100.371400001069
100.371500532847
100.371555438826
100.371580171685
100.371534665048
100.371385096437
100.371094516447
100.370707203454
100.371035886093
100.371399290874
100.371237812929
100.3715317167
100.371629008921
100.371652668921
100.371586592966
100.371671818981
100.371631302317
100.371528253541
100.371507956617
100.37157525285
100.371540616082
100.371562254409
100.371524736609
100.371463135525
100.370736620701
100.36901086169
100.371075849196
100.371533572936
100.371541660615
100.371546382025
100.371604447177
100.371593035865
100.371537743265
100.371528461099
100.371482071574
100.371303350829
100.370620935968
100.369073344497
100.367640923576
100.369877188006
100.37102475615
100.371371494098
100.371474046319
100.371516686248
100.371538222829
100.371555734985
100.371640280446
100.371689515408
100.371620779612
100.371694381531
100.371678452469
100.371586645248
100.371468311378
100.371684738994
100.37173730796
100.371708098071
100.371698008503
100.37176391411
100.371669634912
100.371435524781
100.371023565607
100.371494789648
100.371609021222
100.371762305907
100.37172507904
100.371789602483
100.371721936769
100.371576830138
100.371663847877
100.371682988313
100.371508941193
100.371500573962
100.371545414185
100.371568788637
100.371472752785
100.371446096
100.371378668402
100.371216325877
100.370253253259
100.368659765715
100.370946797571
100.371380883397
100.371350959263
100.3714095141
100.37143681907
100.371514619897
100.371456772867
100.371446571736
100.371419339442
100.371633990192
100.371600436338
100.371622333398
100.37170546214
100.37167081249
100.371456294877
100.370939156065
100.371424620798
100.371455974617
100.371648809896
100.371635396729
100.371668567539
100.371605964345
100.371493648441
100.371559103584
100.371438464865
100.37142087142
100.371373871391
100.371376651668
100.371326083555
100.371282483786
100.37125445096
100.370754457762
100.36901809874
100.367977726855
100.370210763017
100.371178095467
100.371262902404
100.371295554727
100.37132780507
100.371333329624
100.37137816818
100.371368086443
100.37153720662
100.371532120656
100.371546630576
100.371634112995
100.371616742116
100.37139947243
100.370908734413
100.371400675521
100.371635718038
100.371583854615
100.371631032166
100.371631404511
100.371544734829
100.371475563339
100.371502670629
100.371400173042
100.371358181462
100.371341835503
100.371303982291
100.371304759019
100.371258960225
100.371276068229
100.37064165096
100.369379011488
100.371155325379
100.371295975347
100.371280305242
100.371267821669
100.371332636532
100.37131646542
100.37134167418
100.371493103872
100.371490385763
100.37148491127
100.371429485506
100.371538302701
100.371635716969
100.371663412205
100.371480478564
100.370954005017
100.371424113433
100.371627999484
100.37161756188
100.371532113502
100.371517443502
100.371642068603
100.37164414723
100.371425160473
100.370985979687
100.37148261901
100.371536953727
100.371677652936
100.371687931556
100.371643838662
100.371558888744
100.37147806115
100.371491024525
100.371507749735
100.371386059769
100.371318347522
100.371334276336
100.371326861077
100.371316585371
100.371301283278
100.371274994565
100.371243077381
100.371170279179
100.369791818225
100.36882037941
100.370958166639
100.371349050093
100.371260158912
100.371282157257
100.3713012259
100.371341514933
100.371337452992
100.37133923637
100.371361343193
100.371378138837
100.371510312992
100.371498010689
100.371547727715
100.371486966038
100.371595949293
100.371693680837
100.37173639394
100.371611003702
100.371108421038
100.371538499663
100.371710455083
100.371681570787
100.371575409489
100.371572839493
100.371705362253
100.3717104399
100.371523964445
100.371072463751
100.371534911592
100.371635768597
100.371725460498
100.371789126817
100.371721858147
100.371623869619
100.371565574217
100.37154593158
100.37156542402
100.371451098028
100.37137119042
100.371367936937
100.371374539721
100.371320305329
100.371320132079
100.37126903455
100.371274762301
100.370845633875
100.369307363656
100.368727799044
100.37061669329
100.371299619158
100.371306921351
100.371348384369
100.371365901724
100.371370916653
100.371403584773
100.371435389203
100.371408639933
100.371401745642
100.371390999745
100.371397525208
100.371381487181
100.371027262783
100.370401281144
100.37134928403
100.371417679406
100.371443987356
100.371443426209
100.371449946189
100.371492471572
100.371464454746
100.371610231985
100.371559354616
100.371640377004
100.371583535343
100.371664551697
100.371758364935
100.371812476097
100.371614952683
100.371633640464
100.371678331076
100.371590120086
100.371664122969
100.371741354923
100.371731064374
100.37157595932
100.371180755468
100.371368837971
100.371574822294
100.371620724165
100.371566891348
100.371590367104
100.371573892247
100.371495815396
100.371481556433
100.371537772669
100.371482294021
100.371490294189
100.37147622011
100.37149771737
100.371505944645
100.370917076188
100.370840645173
100.371484446069
100.371528242325
100.371547866661
100.371542379461
100.371533742221
100.371576882232
100.371508728606
100.371644875026
100.371615285777
100.371609540132
100.371667221292
100.371616833017
100.371455238724
100.371057111571
100.371314232536
100.371504638905
100.371577740062
100.371549264767
100.371581273468
100.371558210268
100.371555559951
100.371540547627
100.37158251217
100.371561642756
100.371581135898
100.371580946324
100.371594545675
100.371622348519
100.371174526677
100.371474049266
100.371640718497
100.37157197985
100.371631569098
100.371610458585
100.371597688255
100.371582228006
100.371590376563
100.37156105239
100.371628089588
100.371590580756
100.371633788424
100.371566257179
100.371433095696
100.371062437158
100.371368083005
100.371525308269
100.371596977443
100.371556835193
100.371584597562
100.371628683189
100.371603531255
100.371650034591
100.371574027573
100.371483654548
100.371171627039
100.371423109686
100.371572076259
100.371632348024
100.371588211647
100.371608589191
100.371589312606
100.371580843202
100.3716190107
100.371608503939
100.371622335998
100.371643757808
100.371656459023
100.37168498321
100.371707824066
100.371352508245
100.37169081809
100.37164178279
100.371680040734
100.371692096608
100.371663481542
100.371643712564
100.371626936487
100.371629032466
100.371613856272
100.371641563624
100.371620644653
100.371663935572
100.371649074808
100.371628391315
100.37139066403
100.371588545501
100.371656013637
100.371664788991
100.371626926746
100.371643044972
100.371672548186
100.371654334406
100.371713433635
100.371747666958
100.371780818869
100.371636313921
100.371760085576
100.371765378993
100.371742826542
100.371670274188
100.371684464929
100.371648233012
100.371635181829
100.371655517562
100.371659741847
100.371686334475
100.371696694939
100.371698581105
100.371743827506
100.371772923572
100.371642506285
100.371776190607
100.371787067142
100.370919463862
100.371164010399
100.369665693199
100.370186142629
100.368433579742
100.369282858085
100.36772447493
100.366778598821
100.367495210814
100.366625292405
100.367635927992
100.366723927911
100.366074579873
100.367008607817
100.366344315364
100.365973596105
100.367100558653
100.366909256015
100.366857729234
100.368617401796
100.368819931808
100.369037425519
100.369348822088
100.369705986484
100.37113944511
100.3708394937
100.371255775314
100.371633083892
100.371899738213
100.372283372769
100.372162507305
100.372228090443
100.372252086835
100.372283554186
100.372305801988
100.372350096811
100.372405921117
100.372589797385
100.372775395547
100.372975914825
100.373067868355
100.373084135298
100.372927836557
100.372848656898
100.372646707567
100.372378013391
100.372279227527
100.372343148139
100.372423115072
100.372677383774
100.372442017744
100.372309507977
100.372225296435
100.372032681194
100.371779704199
100.371400586122
100.371055803931
100.371208158485
100.371294627729
100.371168535152
100.370964376573
100.371075692872
100.371168411144
100.371400904734
100.371538240767
100.371477930263
100.371537645456
100.371670511038
100.371629951763
100.371686989558
100.371634028483
100.37184467774
100.3717341405
100.371796663398
100.371862944865
100.371930792166
100.372022423462
100.372090901738
100.372162916291
100.372187647664
100.372217301702
100.372244413847
100.372265165152
100.372383998138
100.372608331955
100.372808455676
100.372911270073
100.372935420459
100.372719569738
100.372480717218
100.3721740238
100.372141820187
100.372176702667
100.372158377321
100.372230350408
100.372442937343
100.372521214816
100.372710090142
100.372889626014
100.373086162716
100.37319804658
100.373217889886
100.373129257151
100.372921344032
100.372681130002
100.372536502594
100.372126086477
100.371692777274
100.371259167784
100.371378078767
100.371512896784
100.371445809391
100.371315281244
100.371227585806
100.370449046679
100.369970815112
100.369827771511
100.369754307349
100.369602665978
100.369771267731
100.370144281266
100.370319007393
100.370371706082
100.370005517706
100.370384367449
100.370646481449
100.370733446625
100.370494341724
100.371585618837
100.371840198634
100.371836945981
100.37194054419
100.371971745247
100.372079956665
100.372133639642
100.372138478127
100.372159069393
100.372125607149
100.37220008437
100.372236432108
100.372287625794
100.372327967431
100.372357507403
100.372377999122
100.372467196794
100.372534096169
100.372619204995
100.372809059785
100.373011096909
100.373231510841
100.373337982092
100.373355637497
100.373292377742
100.373088663152
100.372839527578
100.372443378599
100.372012103834
100.371565059658
100.371407079744
100.370703956087
100.370348645672
100.370203722297
100.370085021233
100.369965219451
100.369716003862
100.369748336819
100.370113734534
100.370377517923
100.370435638654
100.37056696569
100.370252669577
100.370637779439
100.370887909782
100.370657689344
100.371309436428
100.37176793115
100.372171417844
100.37228421256
100.372273226606
100.372251571461
100.372346295068
100.372403610228
100.372439423217
100.372526662658
100.372555651207
100.372619233743
100.372693616597
100.372910540855
100.373131366521
100.373343841145
100.373456115344
100.37348011682
100.37341295663
100.373216429677
100.372955846299
100.372577481643
100.372146975753
100.371681966542
100.371017640369
100.370722911105
100.370568359805
100.370217984823
100.369969527097
100.369870154589
100.369684605001
100.369462310154
100.369698443447
100.369964943468
100.369671531596
100.369550744292
100.369321823379
100.36903306342
100.368766977073
100.368568084871
100.368416961443
100.368346759493
100.36860560892
100.368859902593
100.369060622214
100.36931615868
100.369511915992
100.369153337583
100.369241479371
100.369516436525
100.369579164958
100.370406296751
100.371009451238
100.371731681401
100.372066814568
100.372136485975
100.372227758971
100.37225366757
100.372431423982
100.372396932222
100.372361344365
100.372408994742
100.372478581761
100.372550854345
100.37260399674
100.372626290828
100.37270298586
100.372801330946
100.373045683214
100.373270863994
100.37347215573
100.37359276367
100.373615101983
100.373557540379
100.373359924465
100.373098431958
100.372708992918
100.372290691481
100.371837530015
100.371175804498
100.370893966083
100.370599703608
100.370389059176
100.370342842791
100.370088964126
100.369919593455
100.370201930531
100.369944025585
100.369697101455
100.369453533137
100.369122689389
100.368818652492
100.368361738884
100.368614761427
100.369019173265
100.3693079239
100.36945123288
100.369680776361
100.369665639084
100.369501550526
100.368767872475
100.369035061008
100.369286812853
100.369392690214
100.369483829425
100.369026514043
100.368494480335
100.367828838915
100.367210551338
100.36598294046
100.365964322325
100.366571206736
100.367265327872
100.367834688629
100.368388313988
100.368911865708
100.369867646931
100.367461632808
100.366968396156
100.366670033552
100.366452874368
100.36608493192
100.365790493863
100.36482475652
100.364003324882
100.361639196133
100.365093724651
100.366258163153
100.365293637238
100.364045276954
100.363225749157
100.361604823884
100.360099398444
100.360837547577
100.361750642504
100.363482445954
100.36340041436
100.364005408762
100.365061651106
100.366131212637
100.366799194061
100.367536610477
100.36814240128
100.368774590276
100.369288034751
100.369774841014
100.369405123399
100.37023907292
100.368159897821
100.373009726077
100.373064605972
100.372795592595
100.372405547038
100.371871404504
100.371075937888
100.369838808512
100.368313401531
100.367329655642
100.366317580893
100.368217997517
100.368433239546
100.366475441501
100.363615044065
100.361899097675
100.360792049186
100.352890907417
100.355256893148
100.355977541475
100.357660628413
100.360056651988
100.361529047424
100.366100096629
100.368123576653
100.37026630307
100.37027045807
100.370585355614
100.369062223529
100.369468060998
100.369835709114
100.370295994957
100.370626651344
100.37116387193
100.372217005869
100.372490417367
100.37247785137
100.372347238012
100.372469676967
100.372539190899
100.372624628292
100.372685645896
100.372699107549
100.372802069398
100.37289221479
100.373115384311
100.373354285916
100.373562167915
100.373690256741
100.373715754903
100.373669109572
100.373453060802
100.37319838032
100.372780891968
100.372356746461
100.371933555954
100.371296772289
100.37103878167
100.370742799126
100.370574152367
100.370535972899
100.370412283772
100.370658479309
100.370460956912
100.37051541035
100.370639314753
100.370783505557
100.370574436636
100.370397915753
100.370039225416
100.370169868543
100.370402793524
100.370259105653
100.369994144618
100.369623408761
100.370058537955
100.369668756367
100.369306457664
100.368957931394
100.368573204884
100.368153173542
100.367772033621
100.367115078303
100.367450467148
100.367953057211
100.368367898001
100.368631221493
100.368970081149
100.369318240897
100.369300355364
100.36905667102
100.368542370239
100.368090370642
100.367920718008
100.368428068419
100.368545145412
100.369989208948
100.370939579655
100.371291783684
100.371606838426
100.372574922564
100.372690519472
100.372573884013
100.372467228986
100.372600262328
100.372683362222
100.372741910688
100.372767359999
100.372890789628
100.372970106162
100.373161676246
100.373450126532
100.373668564233
100.37378892391
100.373808417003
100.373773675463
100.373552878806
100.373302855694
100.37290140027
100.372517738913
100.372062049336
100.371487187893
100.371211026313