/*--------------------------------*- C++ -*----------------------------------*\
| =========                 |                                                 |
| \\      /  F ield         | OpenFOAM: The Open Source CFD Toolbox           |
|  \\    /   O peration     | Version:  v1612+                                |
|   \\  /    A nd           | Web:      www.OpenFOAM.com                      |
|    \\/     M anipulation  |                                                 |
\*---------------------------------------------------------------------------*/
FoamFile
{
    version     2.0;
    format      ascii;
    class       volScalarField;
    location    "1.5";
    object      p;
}
// * * * * * * * * * * * * * * * * * * * * * * * * * * * * * * * * * * * * * //

dimensions      [0 2 -2 0 0 0 0];

internalField   nonuniform List<scalar> 
87341
(
100.100751103414
100.1027630131
100.099157259947
100.103669201365
100.110685969629
100.110922269562
100.108957706872
100.109558496588
100.109766260128
100.110089645209
100.110259031503
100.109991009767
100.111771974897
100.111318106492
100.113551324896
100.113600469082
100.111112360115
100.107672609904
100.105168233522
100.104834569452
100.104705903173
100.106134565237
100.103940096906
100.105687113716
100.108001669614
100.112153022408
100.106771839271
100.10572808567
100.10497034605
100.104771798209
100.104649827098
100.105072034767
100.105662074337
100.106655619585
100.11189863216
100.107839621259
100.105464763872
100.103643005997
100.10577489043
100.104318775457
100.104503640822
100.104843406094
100.107373736407
100.110805900683
100.11315901342
100.113007448307
100.106256819394
100.105332006178
100.102471964144
100.102574677655
100.102909922848
100.102756112491
100.102696049123
100.102491393897
100.100136763454
100.103539511325
100.106980025842
100.105435286176
100.102172412138
100.101153659072
100.100443496107
100.101124345878
100.101069855381
100.100297786333
100.101214727352
100.102247581411
100.105587053123
100.107193922891
100.103793449092
100.100385033193
100.102822847646
100.103037028251
100.103037602544
100.103171623247
100.102731211502
100.102629189231
100.105639259762
100.106665797246
100.104252340815
100.107447920624
100.110528725767
100.112046905235
100.109903190862
100.109665506628
100.110883075819
100.109043265988
100.106574253502
100.102318996967
100.107782319598
100.09626294451
100.085063678224
100.091070600952
100.092280192086
100.102399939031
100.09723381726
100.098281959364
100.100875318467
100.09985589815
100.099333638601
100.099476348093
100.098777687281
100.103146471711
100.103720438319
100.099559833298
100.099980931163
100.097202452125
100.096058567282
100.097051403062
100.097070167638
100.096130225251
100.097253228149
100.099999251129
100.099703057014
100.103891884732
100.103430836413
100.098951648995
100.099853083778
100.099682962642
100.10014541212
100.101160936275
100.098457701868
100.097323211269
100.102850211478
100.103151718354
100.099812579986
100.103520867218
100.109916351779
100.114905673665
100.107857094578
100.107679209508
100.112495989422
100.127835756767
100.097305737674
100.097873009198
100.0824882641
100.055664603778
100.056553482899
100.052289575181
100.052783239835
100.058931352835
100.089172382183
100.100566621098
100.097355355793
100.097040716056
100.101712091592
100.10835260178
100.090375048531
100.090965756479
100.092298536212
100.101216369569
100.096420317588
100.096418491096
100.101186081541
100.092341206267
100.091040458983
100.090503972249
100.088961107848
100.089443919281
100.09274383723
100.090992778133
100.051098130778
100.053174096827
100.054403319373
100.054170673961
100.053211259459
100.053252093423
100.055383769165
100.055776992095
100.059434600715
100.088784216541
100.083934417289
100.06759002089
100.061872174418
100.061711780944
100.058821231158
100.059774968724
100.054245305222
100.054419319163
100.056775774147
100.060488724278
100.060499465628
100.056795583159
100.054420554994
100.059579030225
100.058675028283
100.052355428549
100.053234782866
100.059633466868
100.060056158228
100.059175891761
100.058859993641
100.059774476238
100.059624965523
100.058753957847
100.059852031286
100.059937037458
100.060616493733
100.060780519274
100.060142570584
100.055423727804
100.056229383558
100.056222874029
100.055479203578
100.054417384384
100.055541165994
100.055159340725
100.058635207531
100.059790391752
100.060544955601
100.060846551896
100.060163787382
100.060084505154
100.060769230826
100.060654837081
100.058500336425
100.058258849861
100.058377679577
100.058572407778
100.058679437656
100.058571839038
100.060369257761
100.059482793897
100.059469269835
100.060066347199
100.059552257683
100.058629224784
100.059788454431
100.05826084459
100.058143083435
100.058331081179
100.058418312419
100.058214517854
100.058242563323
100.058499070229
100.056045807249
100.056096559413
100.056031819284
100.056149747766
100.056235867924
100.056341074375
100.056331513006
100.056325010456
100.058551225323
100.060337996299
100.060648506976
100.060449310349
100.058441291945
100.056146436296
100.056063741777
100.055933227225
100.055955070778
100.05595736193
100.055891559832
100.055935545671
100.053922331635
100.054062494484
100.054094609918
100.053990364803
100.054123001089
100.054297808047
100.054463385659
100.054479496844
100.054488565813
100.054480916107
100.056312859289
100.058607023535
100.059019312701
100.056529071329
100.054745694348
100.054279688568
100.054115244727
100.054005727943
100.05408672389
100.054067632384
100.053914765247
100.051875316137
100.051800202299
100.052127314541
100.052124117283
100.051918334089
100.052089228425
100.052491580325
100.052793756273
100.052814389466
100.05284702339
100.052909596713
100.052608365975
100.052219528867
100.052114119353
100.052308116349
100.052262257718
100.04992303934
100.049189357778
100.049002787847
100.049622867611
100.049712638906
100.049306719937
100.049494906301
100.050240336186
100.050759471305
100.050810737247
100.050906716639
100.051037532303
100.050564956984
100.049831580353
100.049715898666
100.050073220373
100.047702354262
100.04737053513
100.045836920196
100.045411208407
100.046755832303
100.047077027405
100.046984805073
100.047279217161
100.04790094316
100.048807281422
100.048642815856
100.048864478143
100.049410087582
100.048628850551
100.048024237721
100.047722205842
100.04319640754
100.037387018843
100.035928533936
100.038435646469
100.038397240542
100.036509673737
100.036895647268
100.042089112027
100.04333779304
100.04032270195
100.043367006103
100.045052834777
100.045499355845
100.044567111949
100.041720974337
100.044731812172
100.066620697836
100.065983859108
100.066989977966
100.069363787422
100.076955659705
100.066665864394
100.066194383472
100.075352524901
100.072884731825
100.065507462037
100.072160749389
100.084180473626
100.082442920129
100.071245490477
100.062743864923
100.061684880163
100.059172825177
100.064201062977
100.066749802291
100.07197786272
100.065630350119
100.058251203483
100.057469174922
100.054326618589
100.048929142728
100.04776600528
100.051807645473
100.054973343275
100.055757985486
100.059231792536
100.073020985458
100.066772064522
100.070783046211
100.064325381591
100.066130060207
100.060533272659
100.071673535528
100.069814522312
100.06834274532
100.073024617812
100.092527406811
100.128907610912
100.172052421762
100.222164738977
100.272448292379
100.326190828328
100.368474791515
100.401127617841
100.439172085663
100.464475799126
100.477315374112
100.487593992062
100.45680111722
100.4601961688
100.462922651331
100.463585028528
100.462381688702
100.460579710839
100.46107485052
100.469095126846
100.467052161034
100.468578255711
100.471544471051
100.472763452282
100.472666992121
100.471103012175
100.470651988418
100.446727810942
100.459885767935
100.474171739507
100.465497078098
100.456907978098
100.444976591558
100.444452103953
100.450030722426
100.444101104586
100.423393352094
100.430458069014
100.440673611601
100.442736116654
100.432829437605
100.43309159031
100.440235895299
100.449655728419
100.44713971125
100.462163010418
100.412618442369
100.42356745101
100.427171426576
100.42796466992
100.424545888041
100.413100818401
100.417526220276
100.419121563077
100.41240451307
100.406588087451
100.411496533923
100.416066583652
100.415958978964
100.410532880625
100.402273595817
100.407388134459
100.416772290368
100.416784551637
100.464118388137
100.459559240969
100.402100499101
100.404972327965
100.402037578287
100.400207869095
100.405739791519
100.394520438935
100.389574341698
100.40170539049
100.402320403934
100.401720110304
100.404344179976
100.403200500274
100.410622241004
100.404077947647
100.399079595101
100.4110168714
100.427374762595
100.453165392952
100.450269052461
100.459726018448
100.460128714167
100.460673625956
100.461878516097
100.465313131249
100.466648861704
100.46929317861
100.465822473565
100.466842103279
100.469178696085
100.470530677975
100.464079132984
100.474054310848
100.457814278251
100.445071786741
100.443987202705
100.456483520131
100.450668528235
100.443513121549
100.43956300366
100.428373267009
100.421064732184
100.44256871659
100.460288303208
100.461368735749
100.460873282011
100.41517471924
100.414679654196
100.413516734332
100.407377659672
100.400601780487
100.406441182243
100.403594531351
100.396717524255
100.401661150431
100.404931867956
100.401171992898
100.403719058132
100.401691718467
100.403933727288
100.40311106549
100.398286726838
100.402194716319
100.401277893064
100.404502771618
100.400705055835
100.398856879288
100.407499682372
100.412119592329
100.421062210055
100.431955407545
100.434478128531
100.430733225844
100.424028392105
100.429592355366
100.462984398371
100.492049548445
100.476855697022
100.497164253287
100.512745793329
100.47539465858
100.45166035359
100.44832097782
100.46352805861
100.466289881206
100.46828377994
100.50255378097
100.491796614087
100.493905716723
100.476627439108
100.48365116206
100.474054082896
100.472868707893
100.477663961198
100.473087826237
100.487069397496
100.46975316561
100.479990724146
100.476702478407
100.47805360181
100.481448131207
100.490525707486
100.500320069105
100.502323049268
100.486236252694
100.484893218888
100.487200094977
100.491387281201
100.482279914225
100.455077209437
100.423007493899
100.423196459494
100.430846108469
100.435325853613
100.433220814159
100.423543695011
100.413194254084
100.403834477197
100.408706464701
100.392072139737
100.386070409247
100.39748742858
100.398652900509
100.408290256531
100.407685015654
100.398056057211
100.391236629126
100.408784580992
100.417895161048
100.415583552441
100.414215726573
100.408586748748
100.45422370956
100.453612418318
100.453149795009
100.411675817792
100.419697477216
100.42002807877
100.418607366024
100.415771515782
100.413630304934
100.425353549231
100.447122038967
100.454609235141
100.453179947644
100.407627271363
100.408547810255
100.391859196531
100.400209533051
100.412958655568
100.415551235485
100.40951872327
100.395777926646
100.40110782532
100.406014329074
100.418646075654
100.423511811067
100.434584580989
100.465695805239
100.50116825353
100.499720213742
100.48349727743
100.486471527551
100.487505151574
100.49945938465
100.50413891538
100.489605618486
100.490345702934
100.483045323484
100.512013975099
100.508768310147
100.510123833013
100.50372603343
100.489395433222
100.490573209722
100.50412281152
100.501496262198
100.496457362657
100.496432643552
100.499330164735
100.498298436272
100.50036841356
100.480577948106
100.489099911349
100.464545924027
100.451832427144
100.450819619016
100.454363642751
100.467832292648
100.446725484617
100.450616049544
100.447651740982
100.445210958868
100.441977803391
100.439574204057
100.465758160454
100.465299554614
100.465809318932
100.463222748321
100.458526444203
100.466258798728
100.468501762302
100.466361095159
100.466029254852
100.46636219632
100.463764231347
100.464430204636
100.464102994212
100.464446504301
100.464501899897
100.464152033328
100.464885224908
100.464338394005
100.46434079449
100.464185824106
100.464347306023
100.464802047511
100.464985996302
100.464080106325
100.463816580742
100.465014139845
100.464051782478
100.465518928478
100.464954246194
100.464929930445
100.465031927854
100.46504972428
100.465145857873
100.464882394974
100.464842370706
100.464745679898
100.464558531356
100.464404523028
100.464454271593
100.464797651079
100.465162251958
100.465351530638
100.465990148974
100.466067176701
100.467018098237
100.466733020716
100.467201154735
100.466346765088
100.466723768982
100.466287079617
100.466561038928
100.466210895263
100.466735922346
100.466677725837
100.467281226903
100.466546045944
100.466117072557
100.46827454065
100.468955562844
100.468146485386
100.466749973515
100.467866402194
100.469297005441
100.467886327899
100.470391417812
100.468472521401
100.469296921987
100.469091146104
100.469296855844
100.468980746518
100.469089266339
100.468531636709
100.469038793839
100.469257989318
100.470939462481
100.468464786799
100.46950244407
100.469652430248
100.469494503792
100.469944213292
100.468678804423
100.469961597352
100.467102226979
100.467204142736
100.468323635322
100.469770153773
100.470167525369
100.469957141887
100.472390473235
100.472648265676
100.470624378661
100.469190332486
100.469189672625
100.470732630668
100.4702547903
100.468115373942
100.472113400445
100.469786013814
100.470766320638
100.473127804169
100.469407395005
100.468744625422
100.470253971002
100.469843164389
100.46870851379
100.468176275266
100.469108333023
100.468983038253
100.468438155985
100.468798530804
100.468312955962
100.468775736715
100.468158097436
100.46709180595
100.467347329714
100.46834041205
100.466336886563
100.466428975474
100.465178354772
100.465340472805
100.467050080575
100.465649750152
100.465030558949
100.464438833751
100.465774842902
100.466562778749
100.466702590073
100.467775035611
100.467387125349
100.46862801502
100.467527054065
100.468666609265
100.46875870521
100.471559044965
100.468258563261
100.469625317349
100.470884219133
100.470628436793
100.468950276602
100.468671832658
100.469112134348
100.468049255078
100.467665612152
100.464445917447
100.4616584994
100.456219484782
100.464419734215
100.465743043059
100.465999353513
100.465036409813
100.458989869579
100.461393140996
100.462428246425
100.466689708744
100.464917510857
100.466917986953
100.466357850386
100.463431716171
100.465791439522
100.464255526257
100.462091350614
100.464608936225
100.462333357947
100.461410521666
100.463456005993
100.461780199658
100.461304494396
100.461362321643
100.461662755981
100.461556748364
100.464852209332
100.46692902464
100.464826124988
100.468209868304
100.46591548392
100.465313752709
100.465458799429
100.466065860705
100.466316454773
100.466312337915
100.465024020979
100.465961590374
100.466076128696
100.466264602966
100.466157609339
100.46648758892
100.465956163301
100.466337946448
100.465605352743
100.465673640797
100.466184196067
100.46567568451
100.466366998619
100.465693787714
100.465969230949
100.465040408143
100.46583413079
100.46655781708
100.466141067875
100.465358585965
100.464526473254
100.465221292714
100.464338732659
100.463773435283
100.464582613192
100.466880526455
100.466149549417
100.464581615251
100.461539393134
100.463922181033
100.468938035732
100.4676893879
100.462711585576
100.460706161312
100.467353887211
100.467119866017
100.466621993206
100.465525163471
100.465765516391
100.464720101835
100.464742719567
100.464757589993
100.464905571559
100.464072326125
100.464419330721
100.464563924995
100.464814323294
100.464547130979
100.464556280285
100.464723422755
100.464701069287
100.464587023751
100.464505032097
100.464336596457
100.464556152378
100.464393864217
100.46443283517
100.464534343148
100.464609245568
100.464651134809
100.464492211929
100.464608650395
100.464465095586
100.464322033349
100.464228506633
100.464221632723
100.464135131341
100.464311053453
100.464428170493
100.464307839872
100.464468296804
100.46518775473
100.465209058734
100.464913062972
100.463690139583
100.463698677684
100.46436342125
100.463859503648
100.464815323238
100.463643578687
100.463287750906
100.463256957147
100.463850546219
100.463494690461
100.463562121104
100.463780945914
100.464256418518
100.464380360213
100.464731041416
100.464347710153
100.464128337272
100.464110073731
100.464176298823
100.464189891989
100.464235895629
100.464387437949
100.464513234327
100.464387240928
100.464452469794
100.46430373074
100.464156277535
100.464146748831
100.464009017904
100.463980043176
100.464029148405
100.463985615215
100.463909310288
100.464227148104
100.464424845314
100.464550723228
100.464607284246
100.46525827585
100.46528448799
100.466010883665
100.465942541395
100.465739606401
100.466149186114
100.465789035486
100.46573928761
100.464933767459
100.466257298908
100.466682239165
100.46567747735
100.467566742534
100.46488037125
100.465450596126
100.460063388368
100.45534026922
100.458040809781
100.457728792426
100.456443285493
100.454554813473
100.453571279535
100.455829372695
100.456964520623
100.456938722382
100.458771489121
100.458893938663
100.4611847322
100.459545451188
100.459197080653
100.448598192563
100.449365849601
100.450390909042
100.451057391861
100.451487217083
100.452632179959
100.458053842152
100.453520509324
100.446634536497
100.431102388122
100.414910687648
100.439059387595
100.436280008694
100.433022707073
100.432284026615
100.433962222121
100.434489111874
100.424369822156
100.438258540266
100.45162634466
100.445875953902
100.453506126596
100.447583376024
100.4445872688
100.451307959765
100.445080108625
100.443967028891
100.449701773516
100.442656375178
100.444808742577
100.440465532266
100.447906175248
100.444224210377
100.451435295012
100.452843377187
100.4572078757
100.461875086119
100.464677648624
100.468857922899
100.465301873896
100.466425060709
100.46653966973
100.466824897848
100.464426032227
100.464745063646
100.466757212423
100.466524662824
100.465829444645
100.466165471275
100.464391254879
100.465804418911
100.460249639141
100.449319171376
100.437746107851
100.428378294428
100.420262335613
100.428932443114
100.423913564156
100.426188543361
100.419546823147
100.416306318978
100.414233905211
100.413956356989
100.416527414237
100.415747743695
100.422357780204
100.394602985236
100.382205901149
100.38408550903
100.390534569904
100.410467947923
100.411039939423
100.392160686014
100.377282567542
100.376213339233
100.346227346891
100.34699999879
100.348806582592
100.358795743478
100.348266943774
100.330021253551
100.297759095148
100.280819494974
100.318068478852
100.307424494481
100.30696734705
100.316697938718
100.346725101592
100.355616583154
100.344856528409
100.372445017548
100.393864407979
100.39352425891
100.392821259211
100.392660827717
100.392072704177
100.383366881938
100.407218907846
100.3900595785
100.404344776783
100.401315537155
100.407692619299
100.416770457901
100.430040115543
100.452865182389
100.459142959006
100.465398597307
100.46699390339
100.465254481413
100.460909170463
100.45979120281
100.438587567462
100.421499230248
100.38688337593
100.363721431621
100.348996834744
100.340229486827
100.338539889915
100.355758186449
100.344851043264
100.347541836958
100.335809317413
100.337493303634
100.336104139422
100.335053825379
100.339887751245
100.29898777324
100.287143529757
100.296525144589
100.327312144421
100.370958410305
100.400257329942
100.424383845553
100.443491018893
100.452922927881
100.458123891373
100.460096586136
100.460389269352
100.467917295424
100.502263460195
100.486059265181
100.482368767766
100.481826453375
100.481720942834
100.483740416577
100.488549092848
100.507050234204
100.494793754827
100.483818371275
100.480306639861
100.453878932897
100.436715091473
100.435838882206
100.440379216957
100.456509408955
100.444565798215
100.439579029443
100.434682961064
100.424763197743
100.425751915065
100.435673245296
100.436925961211
100.428062168232
100.429692741041
100.439719219751
100.44384492344
100.446154963003
100.457662247646
100.424134907305
100.421989886402
100.418413287922
100.410295411678
100.411024197639
100.42101565518
100.413255990542
100.412712635382
100.406083630167
100.400437457788
100.406903597073
100.412712378402
100.461249701262
100.466527060359
100.464180341039
100.466997934495
100.464104072462
100.470626508289
100.469829320785
100.471570777581
100.471399036527
100.469082852281
100.46875566319
100.469159493665
100.468456848808
100.469518180351
100.46908676341
100.469547353725
100.470796262828
100.471960638388
100.470994704848
100.473718888174
100.473054926266
100.472728051795
100.472640970018
100.472483769278
100.472331751963
100.472395636174
100.472662645537
100.472364281757
100.470611108766
100.466982949284
100.465286348388
100.46501479715
100.464023311655
100.463478071434
100.46322595912
100.464015447931
100.463981777427
100.464102493081
100.464466252311
100.464689983069
100.466279728278
100.468089248985
100.468660008636
100.469581753841
100.472375543092
100.470225694588
100.470091796615
100.47015796749
100.469105351893
100.470649978322
100.472655430383
100.47330731415
100.473561680513
100.47326739987
100.473422306304
100.47357223599
100.473716709397
100.473842768254
100.472717294617
100.471336030877
100.471799180661
100.473036267895
100.473979417025
100.473836649687
100.473793409237
100.473711080484
100.473381295246
100.473001891212
100.472841294031
100.472763807503
100.472625793728
100.472623579997
100.472419924508
100.472463953499
100.472610241523
100.472713902529
100.472617883309
100.472689349714
100.472827024285
100.473077419906
100.473220921214
100.473338211623
100.473586802611
100.473811730334
100.473934057173
100.474058025348
100.47403988193
100.473446586759
100.472365337424
100.474128824983
100.474952875731
100.474749082096
100.474566728258
100.474075618111
100.474114414939
100.474623943286
100.474872498102
100.4751444131
100.474354216538
100.472643818277
100.470110521505
100.466519875427
100.465285316336
100.466317497178
100.469289242028
100.469754981676
100.47173511402
100.471741088457
100.473679849079
100.474619515973
100.474767247603
100.474580028971
100.474258480173
100.474030262874
100.473861686819
100.473831609226
100.473290985756
100.473050183488
100.473042625893
100.473148415792
100.472856994646
100.472628941432
100.472504540512
100.472371894908
100.472520150836
100.472631576637
100.472782783011
100.472846070703
100.473063991213
100.473020235425
100.473217155813
100.473692717741
100.473490589795
100.473635835129
100.472668240635
100.472761649268
100.471492703959
100.471374423406
100.471209262834
100.471039130825
100.471439943938
100.471579545116
100.472683051072
100.471675079644
100.47190858848
100.472378274173
100.472257666145
100.47257282064
100.472484663522
100.472593926951
100.472537759542
100.47220737655
100.472286033794
100.472027403953
100.47209586739
100.472288471327
100.472536584572
100.472839375668
100.472650316944
100.473057958033
100.473778492488
100.473732269522
100.47383863022
100.473938909228
100.473667266419
100.472976806689
100.472344160273
100.471121218133
100.469502420097
100.467629112929
100.466060228569
100.467614260837
100.468533748357
100.470003881298
100.469666942701
100.471099319236
100.472187922203
100.473028990478
100.473396586984
100.473721508123
100.473368513479
100.473048335769
100.472212358499
100.47216236886
100.472779289731
100.472246135068
100.472118791901
100.472187898684
100.47217101546
100.471900631725
100.471896854758
100.47168037333
100.471786829397
100.471924966693
100.472041705044
100.472162938111
100.471934724176
100.471924595069
100.471647113324
100.471448065075
100.471332537732
100.471150340678
100.471019213669
100.471072463317
100.471157822771
100.471068791768
100.47093410865
100.470726383171
100.470115017667
100.470154174823
100.469164619398
100.469986892036
100.470382129661
100.470686045036
100.470771568539
100.470544852101
100.470263665067
100.469753575545
100.469262283277
100.468510103494
100.468671430751
100.467388664913
100.468701710631
100.470012148542
100.470667450193
100.470872780426
100.471884945072
100.471631547289
100.471729458674
100.471684252055
100.471527892044
100.471639679455
100.471515195465
100.471672631633
100.471381516132
100.469989548742
100.467345004428
100.466636708917
100.465969328372
100.465514192503
100.465451684424
100.465350746943
100.464540293172
100.463967310798
100.463667509131
100.463680791899
100.463397893039
100.463286248441
100.463479858572
100.46387861628
100.464483223008
100.464314628379
100.464123450779
100.464008604354
100.463656916519
100.463003673755
100.462719095341
100.462413345806
100.462483900529
100.462916018392
100.463516280544
100.463631232277
100.463100573664
100.462820901589
100.463214793418
100.462769409772
100.463050805357
100.464004651865
100.464661385573
100.465021297953
100.464074630323
100.463186539847
100.462898547627
100.463162765166
100.463645692134
100.464600552839
100.465965327122
100.466930016642
100.467528785962
100.466612051617
100.466095149235
100.46612056554
100.465995745903
100.466054362016
100.466269572591
100.465667955205
100.464840769411
100.464475006158
100.464440269609
100.464555852081
100.464554414873
100.464334946655
100.464280651327
100.464356711914
100.464672212188
100.465379210742
100.4647717874
100.465494679967
100.466307955314
100.466831575943
100.466896864508
100.46675244966
100.466471165245
100.46647371855
100.465994652838
100.465399571485
100.465552121797
100.465529116668
100.465395597514
100.465205868404
100.465276925884
100.464788364889
100.465007366249
100.464772465333
100.464960070486
100.465031132872
100.464962148647
100.464900408173
100.464651637968
100.464838630749
100.464770110772
100.464381109127
100.464948584591
100.464565033237
100.465179574022
100.465374052903
100.465304755013
100.465413082895
100.465304669582
100.465171416594
100.465186416679
100.465030382791
100.465183235571
100.465295563542
100.465216857435
100.465020011394
100.464699935081
100.464653811024
100.465129287035
100.465363519743
100.465251446244
100.465059774237
100.465087254623
100.465062509658
100.465094685662
100.465099899735
100.46511986798
100.465177695281
100.46493382875
100.46499740532
100.465128922718
100.465073031995
100.465041624364
100.465074321022
100.465049664586
100.465115170285
100.465030568713
100.46498988307
100.465098695405
100.465096471066
100.464980281475
100.465186261537
100.465089319332
100.46522240197
100.46497171402
100.464920678387
100.465004428711
100.465138318503
100.465106601679
100.464969890758
100.464876193345
100.464682463318
100.464932534126
100.464755352399
100.464553776301
100.46430698699
100.464853130444
100.464377225275
100.464174217889
100.464023989259
100.464015830729
100.463912694825
100.464104445864
100.464028499249
100.464162705756
100.464457477806
100.46408621724
100.463942823638
100.463859765611
100.463984840208
100.46402784137
100.46404114056
100.465260034816
100.465885171198
100.465744084005
100.465780594161
100.466651938065
100.467418128182
100.467254270883
100.467430797803
100.46706098999
100.466764557709
100.466118597843
100.465821837398
100.465379810235
100.465173742564
100.465162946935
100.465059623377
100.465090516879
100.46502785593
100.465128250172
100.46512431128
100.465028571075
100.465138519805
100.46514975257
100.465254228191
100.465009342343
100.465063326551
100.465238344106
100.465450282613
100.465182342977
100.465412315682
100.465195985981
100.465145886934
100.46562168743
100.4657338634
100.465660706385
100.465514633888
100.46515212656
100.464724756738
100.464698510008
100.465323699388
100.464604329618
100.464450291243
100.46409430199
100.463746646411
100.463576456398
100.463234069343
100.464139984056
100.464392257984
100.465107511931
100.465912367357
100.466989698778
100.46824145391
100.469028999814
100.469749244802
100.470254942808
100.469504279898
100.468028228119
100.463732194738
100.466717523444
100.466097287923
100.492447223601
100.494072405985
100.458585289161
100.422980333566
100.381413166958
100.358466573726
100.373918449064
100.37118142095
100.369198590242
100.369554457175
100.370483463766
100.371417766283
100.372550247623
100.373985905443
100.375566368531
100.377028700252
100.378225488356
100.379100673948
100.379639421774
100.378575715784
100.377307961772
100.375838369601
100.374236964282
100.37261284082
100.371051678065
100.369645050415
100.368431198251
100.367415483736
100.366575037992
100.365895006431
100.36542318349
100.36527317838
100.365513851001
100.366230080632
100.367606415657
100.369504714838
100.371459157827
100.372683519556
100.372915388039
100.372890817663
100.37297621441
100.373058397243
100.373064311697
100.373113439889
100.373169172652
100.373228636772
100.373297573012
100.373599871133
100.373711358997
100.373786583717
100.373626434411
100.373499961506
100.37348341176
100.373298580751
100.373170874639
100.37313905526
100.373067991996
100.373091200771
100.373013882051
100.37296830187
100.372961862166
100.372916896505
100.372892110153
100.372782952773
100.372791903065
100.372856036365
100.372875662276
100.372900138509
100.372927174054
100.372979569433
100.372929308514
100.37312603683
100.373219671792
100.373441170725
100.373342702863
100.373250460642
100.372996622932
100.372990566962
100.372961594693
100.373147065838
100.373025573566
100.372967743656
100.372832858867
100.37286083637
100.372810998809
100.372806781462
100.372748755524
100.372777417268
100.372710043958
100.372622516243
100.372499831447
100.372303272117
100.372511128585
100.372655880199
100.372677782409
100.372725172744
100.372722070537
100.372709779425
100.372758201207
100.37280153271
100.372803401207
100.372900351026
100.372901587028
100.372883985551
100.372833481328
100.372628498501
100.372769167505
100.372636109448
100.3727775604
100.372799665686
100.372728290867
100.37273856979
100.372725976646
100.372696141118
100.3726721353
100.37267633144
100.372621025054
100.372590593148
100.372437690981
100.372067886114
100.372447665081
100.372577436699
100.372593302937
100.372628053815
100.372630422043
100.372648862125
100.372667019479
100.372657902982
100.372616103867
100.372644337857
100.372544440233
100.372574618689
100.372646277542