/*--------------------------------*- C++ -*----------------------------------*\
| =========                 |                                                 |
| \\      /  F ield         | OpenFOAM: The Open Source CFD Toolbox           |
|  \\    /   O peration     | Version:  v1612+                                |
|   \\  /    A nd           | Web:      www.OpenFOAM.com                      |
|    \\/     M anipulation  |                                                 |
\*---------------------------------------------------------------------------*/
FoamFile
{
    version     2.0;
    format      ascii;
    class       volScalarField;
    location    "1.3";
    object      p;
}
// * * * * * * * * * * * * * * * * * * * * * * * * * * * * * * * * * * * * * //

dimensions      [0 2 -2 0 0 0 0];

internalField   nonuniform List<scalar> 
80571
(
100.260598776369
100.26018186576
100.259641394606
100.262531881419
100.266991124285
100.267018668935
100.267415123899
100.268113565819
100.26594212288
100.265996864932
100.266188364825
100.266071345513
100.266181514281
100.266357835333
100.266109951133
100.265964022414
100.268128129796
100.267402173165
100.267002996289
100.266978844023
100.26768605129
100.268232017326
100.26595492111
100.266268376708
100.266528116454
100.265840423368
100.265840599252
100.266528950533
100.266269460399
100.265956552382
100.268237805202
100.267691186782
100.266982501861
100.267005937154
100.267404069633
100.268129043103
100.265968603416
100.266114384319
100.266360093699
100.266185774772
100.2660760473
100.266192849818
100.26600323441
100.265947939799
100.268115318509
100.267416968868
100.26702142119
100.266994973244
100.267704996839
100.268254595502
100.265965674056
100.266279962052
100.266542795785
100.265854766464
100.265855007347
100.266543230205
100.266279687945
100.265964228159
100.268249438242
100.267700144164
100.262946720865
100.26321751474
100.262571356065
100.262277722539
100.262639859645
100.262914255146
100.26291445349
100.262640064258
100.262277402347
100.262572258579
100.263220098239
100.262948834103
100.26253506051
100.262915772721
100.263634600468
100.264033015386
100.26408502056
100.264214003456
100.263838697952
100.264211769008
100.264274648104
100.263867681523
100.264177821059
100.264072706686
100.264035344773
100.263627038974
100.262920482079
100.262524259567
100.262940373635
100.263207749185
100.262560387563
100.262265321662
100.262626783191
100.262901340035
100.262901303476
100.262626718233
100.26226477734
100.262559332984
100.263206261518
100.262938972706
100.262521207876
100.262917695538
100.263623749999
100.264032522613
100.264068484173
100.264171190979
100.263862311947
100.264268929725
100.264205969061
100.26383377739
100.26420781534
100.264080821083
100.264030276014
100.263631053576
100.26291257916
100.260142029903
100.261168536765
100.259489208894
100.260134285009
100.260452752448
100.260195806743
100.260751557022
100.258858199115
100.258832490155
100.259853894452
100.259854311787
100.258831799647
100.258856569909
100.260751958252
100.260200231534
100.260275425861
100.259644562561
100.260144116004
100.261172001778
100.26133831911
100.262577013424
100.262788422662
100.261677886459
100.261578609068
100.261528580339
100.261585014016
100.262705846016
100.262538223016
100.261326693184
100.261163937419
100.260140853929
100.259639218006
100.260264101621
100.260185965499
100.260739187595
100.258844340009
100.258819058897
100.259841529628
100.259841422191
100.258818765826
100.258844078208
100.260738338229
100.260183860222
100.260262761853
100.259635953026
100.260138850435
100.261160436745
100.261324744713
100.262534084393
100.262694932604
100.261576620468
100.261522451405
100.2615726787
100.261668565519
100.262776759591
100.262572642077
100.261338078778
100.25947793353
100.251419299069
100.251751800552
100.251806189649
100.252000682567
100.252266578076
100.26115281395
100.259828212269
100.259995764402
100.259995375883
100.259826475314
100.261155071277
100.260455400046
100.260131709378
100.260183899677
100.259494473315
100.259476382775
100.259597080638
100.263984268815
100.261241371344
100.261171006088
100.26389683369
100.25959022516
100.259474680615
100.25950346856
100.260103882561
100.260176952014
100.260595864796
100.261441279286
100.262183052761
100.262052804563
100.262590701553
100.264834042805
100.264865537551
100.263454808868
100.262061729611
100.261074108355
100.260461346014
100.260176116964
100.260175773015
100.260460306145
100.261072367493
100.262059309542
100.263451942851
100.265301581584
100.265526498584
100.264019607531
100.262370001981
100.261156099683
100.26031607553
100.259812940311
100.259564995325
100.259565346175
100.259814028994
100.260317865382
100.261158555157
100.262373044943
100.264023288205
100.265528963132
100.265304013048
100.263360693322
100.263667110549
100.263485148217
100.263024095066
100.262797607774
100.262225833839
100.263006650844
100.2627405903
100.26123301311
100.258167708553
100.252846233088
100.251430651432
100.251750693404
100.251815319206
100.252005447635
100.25226163188
100.252260613728
100.252002507489
100.251810328134
100.251744679811
100.251423994881
100.25149315939
100.25148218957
100.25031082518
100.250177299922
100.250253300364
100.250116455205
100.250186849331
100.250250235196
100.250251566621
100.252267941543
100.252003467907
100.251810725608
100.251757748963
100.251425562076
100.251486950438
100.251498231344
100.250320239454
100.250178941655
100.250249104683
100.250124632674
100.250187569321
100.250243489408
100.250242042283
100.250183432342
100.250117580762
100.250241227172
100.250168459916
100.250310391266
100.250751235467
100.250757718797
100.250640870466
100.250684199762
100.250567072796
100.250608617025
100.250608229459
100.250609726481
100.250614637219
100.250190785395
100.250123207557
100.250261017734
100.250187474315
100.250320526495
100.250773348353
100.250767110114
100.250644209246
100.250683486764
100.250562823928
100.25059725294
100.250592146817
100.250590351631
100.250590774054
100.25055268551
100.250670440811
100.250628319602
100.250372119106
100.25042345157
100.250428933786
100.250388525124
100.250463474051
100.250409242131
100.250429672544
100.250420927625
100.250423994887
100.250438592258
100.250423203456
100.250576466055
100.250696679311
100.250656146724
100.25041043651
100.250452593573
100.25044756855
100.250395195611
100.25046219144
100.250396432744
100.250407652292
100.250390820553
100.250387179805
100.250397695339
100.250380888272
100.250442381546
100.249413654221
100.249347965077
100.24939511716
100.249402794039
100.249372176205
100.249447601552
100.24942408923
100.249443406893
100.249457947345
100.249463122303
100.249456873852
100.249445880587
100.249476367211
100.250482087369
100.250648411847
100.249592895242
100.249405796304
100.249439609212
100.249432727457
100.249383652611
100.249444905884
100.24940115097
100.249406980361
100.249410001247
100.249403596625
100.249391886287
100.249376435145
100.248133241909
100.248168614642
100.248120199232
100.248190352757
100.248203683941
100.248162614999
100.24822146664
100.248208587219
100.24821947239
100.248258388421
100.248266331708
100.248242103194
100.248241791105
100.2482661507
100.248215097507
100.248261654044
100.24824982633
100.248176471034
100.248218247387
100.248172716489
100.248163405854
100.248181983882
100.248171808804
100.248138809748
100.246774858924
100.246814493068
100.24684619426
100.246790103041
100.246900181422
100.246920206815
100.246859204769
100.246938234103
100.246930481209
100.24690307166
100.246979305401
100.24699117618
100.246937612078
100.246983028017
100.247007201831
100.24694072752
100.247011639099
100.246993896139
100.246878165453
100.246924197814
100.246876812793
100.246815261413
100.246857251681
100.246840663925
100.245192822944
100.245020679414
100.245154190367
100.245187218819
100.245075908992
100.245295175351
100.245324727531
100.2451844248
100.245341800557
100.245339875965
100.245224109662
100.245407162305
100.245424764169
100.245278813141
100.245420479739
100.245447341742
100.245309306598
100.245466357222
100.245439025259
100.245210839212
100.245309435862
100.245253168395
100.245090338226
100.245218263495
100.242851073896
100.242809716884
100.24234999342
100.242675149781
100.242718053009
100.242463401258
100.242968743618
100.24301712175
100.242633068684
100.242958920467
100.242964514925
100.242662754472
100.243134718928
100.243160594548
100.242741799449
100.243082315371
100.243118719419
100.242826669309
100.243231040516
100.243184839123
100.242671376921
100.242906917243
100.242827750609
100.242462700688
100.237464093332
100.238641396326
100.238572353191
100.237275835588
100.238147786675
100.238198805766
100.237497088404
100.238864724744
100.238944205298
100.237769621372
100.238595626933
100.238612233329
100.237793586628
100.239085349425
100.239121413991
100.237907141305
100.238786460904
100.238836666431
100.23808253206
100.239286245286
100.239201415147
100.237822788665
100.238507525967
100.238399295514
100.231752382772
100.229705225965
100.232461305405
100.232348068166
100.229390663495
100.231342773108
100.231411009064
100.22988441287
100.232919717486
100.233008824431
100.230243571528
100.232080544096
100.232102815281
100.230232538722
100.233128664725
100.23316867422
100.230371761239
100.232369847661
100.232456266988
100.230750935252
100.233540916909
100.233393294349
100.230334589212
100.231916081605
100.240850297962
100.24065785762
100.238703776359
100.240881397754
100.240695857295
100.238241094644
100.240010680933
100.240006088541
100.238649030479
100.241259633418
100.241800193737
100.239464076192
100.24117306439
100.241160055774
100.239607364001
100.241779644947
100.241786069076
100.239459486469
100.241588764872
100.241679634865
100.240415335067
100.242622174175
100.242313014239
100.239708824892
100.276707879089
100.270996164095
100.271004884773
100.27570313794
100.271292117323
100.271140472506
100.275166333935
100.270229521331
100.269998381449
100.275428516809
100.271933963898
100.272562225968
100.276936353177
100.271455977487
100.271732418792
100.276609035735
100.272349874474
100.272444457676
100.276906623047
100.2721910933
100.272073750557
100.277780291364
100.273503129927
100.273065852713
100.311399872057
100.328046586743
100.316521121999
100.326427034196
100.308799672378
100.325155487293
100.314507857249
100.326016559155
100.308527089467
100.308358260946
100.325642287233
100.313868716586
100.32400944658
100.324911571933
100.315054381349
100.326605185332
100.343816006112
100.344647702256
100.328193557598
100.310979679019
100.310086641093
100.357171364523
100.386335115274
100.373638058843
100.375035696582
100.385179727211
100.374115923777
100.361876676929
100.317191666333
100.327662724471
100.326157211635
100.309714246791
100.364557943577
100.385641593928
100.366798699537
100.365739846886
100.37191887847
100.380344764256
100.358396163597
100.315367085993
100.326990937941
100.343099526533
100.309599273447
100.309734791176
100.327264959005
100.315781520093
100.326710657142
100.310303145645
100.328311565635
100.318036380544
100.329167222247
100.312053415585
100.345838320108
100.345265749843
100.37523126088
100.383324744175
100.360562530605
100.372620136005
100.365240310659
100.364722352692
100.371027038513
100.357672273177
100.380083117548
100.370690524811
100.370579255122
100.379670350415
100.370170631304
100.363493989491
100.363683946631
100.370930085527
100.381458945845
100.398656405613
100.40199121825
100.408014519468
100.408247784987
100.404376527828
100.396055201873
100.394448028771
100.409465438808
100.415256914581
100.413929222698
100.414124323046
100.414304945358
100.413824396636
100.412912356696
100.402530561426
100.406833856813
100.403930733329
100.394421081496
100.414473835079
100.415274397434
100.414946068874
100.411835815684
100.411719722733
100.410954049604
100.401733769925
100.392067103184
100.403795439994
100.411077332359
100.412748863448
100.415730496861
100.416276897841
100.416168163866
100.416762121692
100.417098365996
100.417182388802
100.417241131963
100.41729765796
100.417339101779
100.417372526159
100.417417441908
100.417473617548
100.417524447906
100.417564263521
100.417635423529
100.417867676682
100.418432701703
100.419744858725
100.422398509513
100.427976141733
100.436706319233
100.453356131836
100.445620145438
100.400064640795
100.356714817539
100.310965308645
100.286423445661
100.30145281969
100.302226768026
100.300068484275
100.299835468253
100.300752062022
100.301844546802
100.303007562985
100.304381918722
100.305917265206
100.307396463513
100.308595228659
100.309397541747
100.309760424949
100.309079133551
100.308195881876
100.307127794859
100.305857542815
100.304310815577
100.30252085014
100.300690288702
100.299034397002
100.297714481167
100.296740203311
100.296083038242
100.295634540804
100.295320338106
100.295095280216
100.294940884306
100.294883038652
100.294959352384
100.295287443986
100.295961487828
100.297167384974
100.298964617828
100.300563512478
100.30103968075
100.301122006156
100.30111715363
100.30115229231
100.301139835498
100.301166301314
100.301201381215
100.30117515288
100.30118295967
100.30114353735
100.30102424702
100.3008573779
100.300940698116
100.301073175619
100.301229445934
100.301193771401
100.301077038491
100.301160359774
100.301189311732
100.301182219189
100.301179780313
100.301200607086
100.301206310892
100.301157070996
100.301164196979
100.301146693907
100.301135079015
100.301130877604
100.300998973256
100.300826630568
100.301080654877
100.30114621249
100.30115300445
100.301166317142
100.301168931225
100.301217300393
100.301194865853
100.301189800848
100.301204117192
100.301196084303
100.301271966348
100.301221186041
100.301319110917
100.301392856379
100.301372145646
100.301318445763
100.301224435928
100.3012048824
100.30122462052
100.301230767136
100.301193594813
100.301194795391
100.301180788573
100.30118172607
100.301056836502
100.301043476071
100.301216008779
100.301232073577
100.301221791154
100.301228890742
100.301225679818
100.301249680137
100.301267115143
100.301256854104
100.301270465543
100.30127744666
100.30140432149
100.301491231398
100.301501091418
100.301439632293
100.301300208542
100.301505958467
100.30154825246
100.301683779078
100.30177835356
100.301741125524
100.301601200251
100.301552471125
100.301464722765
100.301311580026
100.301326016409
100.3012937099
100.301264588079
100.301253162662
100.301254809804
100.301271897254
100.301240234305
100.301278728256
100.301057550169
100.300811416208
100.301187620741
100.30128399693
100.301281532342
100.301300144097
100.301317197807
100.301306077584
100.30133515574
100.301347885623
100.301367838269
100.301394002227
100.301372718704
100.301533129161
100.301631983001
100.301743269033
100.3017253664
100.301762449891
100.301674357439
100.301641251251
100.301506903092
100.301483313497
100.301437351263
100.301425984429
100.301371750825
100.301322294754
100.301356187334
100.301363359006
100.301329122167
100.3013463113
100.301163690741
100.301166631363
100.301345828427
100.301406733595
100.301393806051
100.30141183319
100.301404592799
100.301460987035
100.301496337045
100.301528704656
100.301552366729
100.30172678681
100.301849882661
100.301933307044
100.301951705083
100.301832662321
100.301990872816
100.301988901344
100.302074226125
100.302151621862
100.302101488545
100.302010759021
100.301879627179
100.301752706101
100.301584052493
100.301573119244
100.301583386115
100.301532124434
100.30157243867
100.301484902247
100.30145684025
100.301484791551
100.301329490607
100.301435983086
100.301542695617
100.30156210127
100.301517522367
100.301583729942
100.301591577117
100.301612432153
100.301596028448
100.301647980126
100.301639496367
100.301815616967
100.301948989061
100.302081771029
100.302101674366
100.302107355343
100.301956903165
100.301924884828
100.301747697659
100.301706625822
100.301647360108
100.301653724325
100.30162912432
100.301641538431
100.301663235878
100.301619765984
100.301580907065
100.301652759453
100.301391278477
100.3015090226
100.301612556414
100.301681480608
100.30164271399
100.301681198045
100.301701816636
100.301733707003
100.301703390135
100.301760717421
100.301733727706
100.301798059927
100.30204698874
100.302209570417
100.302317677298
100.302311693529
100.302383293414
100.302451745654
100.302404449357
100.302255558474
100.302087644021
100.301881425858
100.301855420398
100.301754877825
100.301757935493
100.301801356928
100.301726739512
100.301750922697
100.301799163326
100.301744209399
100.301796872038
100.301737115382
100.301547269826
100.301751460155
100.301750091109
100.301779299328
100.301843041055
100.301803313838
100.301912141825
100.301838467718
100.301928102696
100.301900772324
100.301937544509
100.302046204803
100.30222138864
100.302395296907
100.302409495442
100.30238066617
100.30222606113
100.302289444547
100.302461044077
100.30260094924
100.302534870483
100.30265195247
100.302547280893
100.302566623788
100.302558358828
100.302383323594
100.302172793728
100.302026912599
100.301990596999
100.30190873268
100.301896132011
100.301939586023
100.301878388432
100.301889258892
100.3018963786
100.301882782397
100.301848420427
100.301885808646
100.301877172111
100.301559834904
100.301902202091
100.301800488959
100.30172424695
100.301932755458
100.301893581524
100.301929671783
100.301955895894
100.301926341144
100.301981202415
100.301968189626
100.302090554363
100.302180408732
100.302215618189
100.302462175516
100.302643757367
100.302826069401
100.302764530753
100.302895109744
100.302831657843
100.302838691482
100.302807103197
100.302593670068
100.302355504533
100.302269219501
100.302115695043
100.302087823192
100.302111803167
100.302009034596
100.302063909991
100.301985305272
100.30195214956
100.301996640048
100.301922764002
100.301915490159
100.302000675577
100.301618400593
100.300800315421
100.301579445357
100.300976416571
100.300121998652
100.30106363334
100.300456957202
100.299699172996
100.298815817176
100.300203608565
100.299632603723
100.297930618837
100.296481487793
100.295531126346
100.295013608129
100.294809410082
100.29479214692
100.294905449598
100.295112045346
100.295413306141
100.295839900769
100.296457784192
100.297353433824
100.298563598019
100.30010073187
100.301827059747
100.303549560907
100.305085191291
100.306375513976
100.307468620496
100.30838427426
100.309100244615
100.309653615135
100.310280221514
100.310700214305
100.31020708811
100.309550207309
100.30868592269
100.307618284794
100.306336820836
100.304772884037
100.302955461042
100.301087109627
100.299376157242
100.297988821708
100.296960602038
100.296268434888
100.295804507003
100.295483712035
100.295255238494
100.295090562354
100.294995744427
100.29501052178
100.295213798286
100.295693975471
100.29663603049
100.298280680263
100.30018877934
100.300969930498
100.301121485273
100.301125433007
100.301143991398
100.301150494253
100.301172412491
100.301197932927
100.30119170488
100.301208030551
100.301151648476
100.301004141581
100.300748756666
100.300818939241
100.300537678725
100.300074132818
100.299406141484
100.299701221708
100.30004801744
100.30052190974
100.300459853486
100.300214575474
100.30061511707
100.300758359276
100.300937944929
100.300697057881
100.300923865335
100.301086214124
100.300714387899
100.300259551202
100.300623454748
100.300848840303
100.301138470972
100.301514656809
100.301445387466
100.301242768349
100.300993317713
100.30092234295
100.301064959427
100.301236973685
100.301225138689
100.301220648707
100.301093757
100.301255005455
100.301211369848
100.301185619784
100.301121044864
100.301084330549
100.301060412541
100.301063061405
100.301075757001
100.301120216357
100.30114356623
100.301140194821
100.301165446062
100.301193452196
100.301176424477
100.301187082616
100.301139078926
100.301008699096
100.300940561954
100.301079983629
100.30117921314
100.301168399745
100.301197818352
100.301197627328
100.301199242353
100.301164843585
100.301202922083
100.30118339813
100.301207663316
100.301155241698
100.301025860867
100.30077040296
100.300360704569
100.300777044058
100.300436081699
100.299993570251
100.299260839477
100.298307749298
100.297193972696
100.29558424135
100.296984565797
100.297348745324
100.297983516164
100.298573910867
100.298958971104
100.299298859567
100.299998216455
100.30005438343
100.299822485836
100.299322366549
100.298832610315
100.298383219516
100.298162085295
100.299005569478
100.299480333879
100.300108225586
100.300366426795
100.300897037499
100.301075781691
100.301184235848
100.301195001377
100.301086126889
100.301088422472
100.301115315269
100.301141022923
100.301154308902
100.301193650056
100.30117700284
100.301257189176
100.301253820639
100.301334371205
100.301297885177
100.301199305756
100.300945259538
100.300573675527
100.299957160962
100.299220509752
100.299144307177
100.298136411169
100.296944607211
100.295141829187
100.293133575778
100.290283215603
100.29128535568
100.292695956144
100.293768882277
100.294701036921
100.296112480679
100.296290582404
100.295594508415
100.294921483483
100.293772523318
100.293297924639
100.295145055128
100.296499346904
100.29688764778
100.298349543973
100.299980214843
100.300628035023
100.300782934451
100.300877963627
100.301117514635
100.301152226236
100.301135172336
100.301155738321
100.30117466571
100.301237044504
100.301196793905
100.301367926053
100.301372257446
100.30147623874
100.301463606372
100.301373276507
100.301107974728
100.300748221293
100.300041397786
100.29937153994
100.298214196325
100.29708876807
100.295015943613
100.294930935089
100.292699133186
100.289544999128
100.285607370108
100.28037719553
100.260637806401
100.270736520898
100.281487131006
100.282602451852
100.286928292043
100.288188283139
100.283346080663
100.287105496055
100.289466891091
100.291271148286
100.292895878483
100.293864734268
100.295110910061
100.295218036287
100.294430538556
100.292955470002
100.291536158573
100.29007465007
100.289781773603
100.292177207699
100.294245534545
100.29517558289
100.297193320423
100.298423930868
100.300432422263
100.300866867947
100.300880031099
100.300966147786
100.301118175655
100.301089053532
100.301093378786
100.301093164765
100.301093535227
100.301096767907
100.301160015265
100.301155333339
100.301154549601
100.301174250484
100.301239131534
100.301196930224
100.301372962185
100.301380974688
100.301491520873
100.301482353686
100.301409955062
100.30111620962
100.300797701142
100.300032980874
100.299390908067
100.298220807843
100.297088061249
100.295013771641
100.292509908376
100.289300175104
100.289248660735
100.284769818594
100.279377524295
100.254780796511
100.225636804436
100.164982897925
100.183264606768
100.189156946391
100.192861397989
100.192439730713
100.199228818792
100.196494052685
100.192962421351
100.198342789207
100.202897129162
100.201093362742
100.196821228267
100.205630776231
100.201036640632
100.201415761804
100.208772856049
100.202280349082
100.201202759513
100.209192900381
100.204798246682
100.198324527245
100.207412076068
100.204007632748
100.196971903181
100.205631272697
100.202527579552
100.194974421773
100.205778048121
100.207153541907
100.204597635508
100.203846349816
100.201853580171
100.200333857251
100.199866718454
100.199990195916
100.199938359722
100.200309860601
100.200597813301
100.200607170439
100.200262992252
100.200484556723
100.20064727661
100.200718679269
100.200513762919
100.200378369089
100.200776811888
100.200473284145
100.200320848154
100.200260270985
100.200496562866
100.200603288605
100.199890961319
100.199899968328
100.200561478445
100.200465972028
100.200223630595
100.200332630032
100.20047865162
100.200783253989
100.20037832882
100.200515289349
100.200719110789
100.200648029056
100.200486622477
100.2002662831
100.200610265093
100.200601939158
100.200313671519
100.199940440404
100.199987273377
100.199867443631
100.200338204541
100.20131362675
100.202333425105
100.202352165965
100.201304820261
100.201784511497
100.202717376818
100.202729620376
100.20180489321
100.2018647463
100.201693986614
100.201270883865
100.201882448078
100.202090100576
100.200734322003
100.201240516283
100.200977264488
100.201145872914
100.201589001701
100.200679397234
100.201331416842
100.201856582504
100.201973752373
100.202552116286
100.200772386392
100.201740849016
100.201127461579
100.201031041729
100.200603942643
100.201169084204
100.202984381825
100.201663727422
100.200376136517
100.201595909298
100.20157884459
100.200352343723
100.201149453323
100.200600009109
100.201025147788
100.201134861385
100.201740201384
100.200764707428
100.202556401909
100.201969929544
100.201850933962
100.201328733733
100.200673489809
100.201585994884
100.201143240329
100.200972082659
100.201235974974
100.200726624848
100.202086981798
100.201882494851
100.201269974173
100.201685608919
100.20369776923
100.203125730754
100.203974523587
100.201516560121
100.200081609997
100.203952054098
100.203145180108
100.202577118346
100.203233166272
100.201963676973
100.202870280264
100.200264689072
100.205941135631
100.20521104658
100.20555529865
100.202010742691
100.201173355171
100.201162786634
100.201999729071
100.203839893214
100.20370849826
100.203135397134
100.20324429433
100.202586561671
100.203148422132
100.203000223309
100.201072001338
100.202020296588
100.203201467056
100.204207303346
100.202365241366
100.202697004123
100.203506067489
100.2045345129
100.202061976318
100.20148761147
100.201998329522
100.202081617147
100.202075470942
100.201565080755
100.201847175024
100.202621625314
100.202615331111
100.201837720133
100.201546058954
100.202070168518
100.201994618705
100.20205563049
100.20454475749
100.203503070843
100.20269143809
100.202354686162
100.204214856357
100.203215351467
100.202025993082
100.201068310624
100.203009073004
100.202200274975
100.200975765113
100.201777794602
100.201529149826
100.202536497941
100.20097915717
100.200570355363
100.202802413078
100.203131610462
100.203336141063
100.202933615102
100.204028555102
100.202198003392
100.2017242421
100.203966140846
100.205047935963
100.205136839418
100.203959941823
100.204820428223
100.201370933252
100.202456725863
100.204485378956
100.203718771728
100.205374105296
100.204560828167
100.205535555949
100.204629220691
100.201116622092
100.20203995543
100.201440337809
100.199551321479
100.19314230273
100.19373061674
100.187797384869
100.191314782607
100.178560114433
100.172864843475
100.176486925147
100.18229940884
100.162608665197
100.236115092238
100.258466737182
100.222407233775
100.250758578114
100.270133426232
100.278135439215
100.283797914325
100.28371216736
100.27893087338
100.27206710881
100.279703526168
100.283701262222
100.286489708641
100.288750241437
100.286800257303
100.289949602489
100.291534072523
100.292993707383
100.294011675611
100.293882585839
100.29235851803
100.290987712541
100.290663686771
100.292127423498
100.293394629694
100.293996422734
100.294902693501
100.292989642812
100.294471454248
100.293071641121
100.292279753071
100.292070343386
100.292067546068
100.292581154281
100.291503549336
100.291375385828
100.291726553323
100.29267601225
100.290871140236
100.293744956967
100.294012769351
100.294658596125
100.295621453053
100.297460298605
100.296763615338
100.295823658906
100.294983258012
100.293989629269
100.292986961671
100.292152290087
100.291022154412
100.293186505589
100.292137554744
100.291785289781
100.292353436473
100.291797330674
100.29260214299
100.291839021707
100.295924351421
100.296631461565
100.297171737386
100.296896924711
100.296505613831
100.296693127194
100.298750290436
100.300578163423
100.299268278353
100.298707274422
100.299190082572
100.295109867523
100.294701194016
100.295882123472
100.297511701557
100.296777845911
100.299370641059
100.297453055373
100.297835279931
100.298324646715
100.297605153576
100.296934501741
100.296212696248
100.296008418282
100.296430116684
100.295603643367
100.294519915448
100.293449516222
100.292580948717
100.292914030833
100.291840587583
100.29078355472
100.291741094213
100.290341767093
100.290504648824
100.290773232309
100.291961500972
100.293914441257
100.293808486639
100.292281676726
100.293090983725
100.292437010969
100.295381814382
100.293775092978
100.293753704589
100.294273240149
100.295356108426
100.297498504768
100.295125956662
100.296998295974
100.298079915593
100.300079680747
100.300795449701
100.301787794825
100.300813858288
100.300225490324
100.300241922214
100.301630334515
100.301201941068
100.300133541267
100.300232755572
100.29797844099
100.299428280436
100.29829679742
100.297351723042
100.298903969617
100.298231022619
100.298615196572
100.29819445835
100.298297903871
100.298001487738
100.299908992491
100.300402586805
100.301275372033
100.301755705265
100.301831611654
100.301897338632
100.301666209518
100.301692362599
100.301175788519
100.300776162369
100.300172833223
100.299371093649
100.298417453152
100.297268774995
100.296356926804
100.295772012497
100.295578166163
100.296382623501
100.297821652018
100.299679528429
100.300829313566
100.300796518892
100.300792434935
100.301158164204
100.301146400324
100.30112977188
100.301151099985
100.301193666297
100.301176338913
100.301267460146
100.301266081337
100.301358236652
100.301323924229
100.301248104726
100.300964126203
100.300636475758
100.299945945218
100.299234704706
100.298076280901
100.296944487497
100.294929614484
100.292657494575
100.289600544035
100.285716611831
100.280648680619
100.261009970013
100.255114167733
100.225901669383
100.164525994246
100.183084542156
100.189064258023
100.192806078695
100.192408374123
100.199090124879
100.201004476
100.196801281439
100.205687722947
100.201002198863
100.201410710765
100.208725344842
100.202274846546
100.201195570667
100.209160901234
100.204781470522
100.198323808531
100.207365220823
100.204003542155
100.196960172247
100.20561559534
100.202528342463
100.194963637074
100.205925175601
100.205186920979
100.205599842003
100.205711327606
100.20461768888
100.207179096766
100.20151103077
100.203981687295
100.201961361465
100.203955386092
100.20008289953
100.200983573827
100.202197775237
100.203305706313
100.204009740725
100.203133441844
100.202433262947
100.201065936256
100.201430746101