/*--------------------------------*- C++ -*----------------------------------*\
| =========                 |                                                 |
| \\      /  F ield         | OpenFOAM: The Open Source CFD Toolbox           |
|  \\    /   O peration     | Version:  v1612+                                |
|   \\  /    A nd           | Web:      www.OpenFOAM.com                      |
|    \\/     M anipulation  |                                                 |
\*---------------------------------------------------------------------------*/
FoamFile
{
    version     2.0;
    format      ascii;
    class       volScalarField;
    location    "1.9";
    object      p;
}
// * * * * * * * * * * * * * * * * * * * * * * * * * * * * * * * * * * * * * //

dimensions      [0 2 -2 0 0 0 0];

internalField   nonuniform List<scalar> 
81489
(
99.9989382608707
100.003762582164
99.9969732025086
100.001241644446
100.006556747277
100.003230831465
100.00285323969
100.002905383752
100.003075503149
100.002691411186
100.003296511497
100.006382684189
100.010226934628
100.009061344722
100.007263316614
100.008267684954
100.005415066082
100.003031523784
100.003049432137
100.005428182171
100.008240828237
100.007218282146
100.009025720416
100.010179802754
100.006358856175
100.003263877591
100.002658309074
100.003048178287
100.002875805142
100.002819783868
100.00319508643
100.006534573719
100.010345719565
100.009193151327
100.007254811725
100.008266895086
100.005455345806
100.003095543442
100.003078896933
100.005442629805
100.008291201381
100.007302936045
100.009233842589
100.010386438862
100.00354480095
100.002832840795
99.9985556460589
99.9990667228808
100.000423478801
100.000842387913
100.000869931115
100.000445622344
99.9990468543075
99.9985194644815
100.002801445147
100.003514693595
100.001237271094
100.000170534518
100.000870877231
100.001108791128
100.001062283956
100.000736163009
100.000397303472
100.001372641462
100.003505175505
100.002778837711
99.9984948832553
99.9990055047236
100.000402031298
100.000827066943
100.000797438519
100.000372507191
99.9990291903241
99.9985339527949
100.002811744886
100.003533174514
100.001377362085
100.000413019249
100.000754881217
100.001082263878
100.001129342091
100.000888661538
100.000188069147
99.9969499664236
99.9990822315382
99.9989911185718
99.9876874639213
99.9900819089264
99.9902153342025
100.000524304992
99.9951452252999
99.9932302813094
99.9956507610591
99.997806931749
99.9978368839322
99.9956529791857
99.9931802392768
99.9951033834793
100.000492800042
100.000501948294
99.996975227593
99.9969366860675
99.9990742044462
99.9979189529172
99.9978953560936
99.9991235398836
99.9970197362966
99.9968612384316
100.000453624782
100.00050213937
99.9950901030844
99.993132982829
99.9956042044112
99.997791160982
99.9977633642712
99.9955927357871
99.9931780409576
99.9951299051503
100.000532975735
100.000490278272
99.9968616972763
99.9970346623781
99.9991328053478
99.9979152978463
99.9979397419582
99.9950019595289
99.9949535386708
99.9877309153632
99.9579315571129
99.9578516574796
99.9522529384925
99.9532252440482
99.9583897248344
99.9887714989278
99.9958012052254
99.9951355925533
99.9951311755979
99.9957264850255
99.9983579404925
99.9902122812019
99.9900413132409
100.00377180693
99.9989815191366
99.994972213908
99.9949262181057
99.9987044929344
100.003352376608
99.9900317217795
99.9902153136762
99.9887132934629
99.9887519336343
99.990221820143
99.9900727400025
99.9523873985073
99.9521668676294
99.9536751039043
99.9536629690238
99.9521481037052
99.9526739206289
99.9534978770807
99.9535173133358
99.9584379039308
99.9887348091018
99.9828338351146
99.9661244916318
99.9596932152847
99.9595322388245
99.9570762415347
99.9581280094009
99.9526865429801
99.9533220063198
99.9523027926117
99.9578719532888
99.9876558824716
99.9876992721244
99.9579525047824
99.9524347295642
99.9533992260388
99.958478598009
99.9584309308824
99.9533049167323
99.9526916215561
99.958149580453
99.958020814691
99.9572969582422
99.9573058743721
99.9580469953258
99.9581621529348
99.9570855161272
99.9584051947588
99.9583950674212
99.9590169059212
99.958975209437
99.9580247905245
99.9521596166265
99.9536785285822
99.953692891069
99.952181900317
99.9527042071336
99.9535512460623
99.9535311268926
99.9570965916537
99.9584088300147
99.9590454696176
99.9589963380366
99.9584885697954
99.958491252045
99.9590113774291
99.9590460162458
99.9569653525897
99.9567720918479
99.9567631904057
99.9569381613299
99.9568776831905
99.9567431697842
99.9584563800324
99.9572930234444
99.9572839268885
99.9579998838841
99.9581139558335
99.9570876154225
99.9583973293192
99.9567684327266
99.9567802861309
99.9569793767685
99.9569279474671
99.9568047771863
99.9568008358114
99.9569279321744
99.954574509583
99.9545904259514
99.9544996661199
99.9544824012533
99.9545397132137
99.9544978811507
99.9544538471764
99.9544562618144
99.9567457634169
99.9584528102532
99.9589628675131
99.959008371308
99.9569375805818
99.954542955462
99.9544911106126
99.9545111247676
99.9546019928856
99.9545856017484
99.9545556814276
99.9545483053506
99.95264633286
99.9526588377479
99.9526486902251
99.9525570163118
99.9525270783147
99.9525597548216
99.95253386726
99.952485174897
99.9524867322277
99.9525280430863
99.9544981820992
99.9568794783147
99.9574528741764
99.9548104956893
99.9528190799103
99.952562287724
99.9525357251527
99.9525725784242
99.9526646126718
99.9526805695558
99.9526539844706
99.9509386745738
99.9509314041917
99.9509221677754
99.9508869146982
99.9507918014221
99.950742997822
99.9507323492683
99.9507022160752
99.9506526885553
99.9506568811133
99.9506986011063
99.9507371099921
99.9507503696064
99.9508149737139
99.9509087913565
99.9509467713961
99.9490935783816
99.9491059925301
99.9490965121701
99.9490642992358
99.9490039472552
99.9488750347582
99.9487949773268
99.9487391917398
99.9486854894101
99.9486210947069
99.9486317799478
99.9486839540436
99.9487456422203
99.9487982665335
99.9489150295339
99.9490309741388
99.9468244063781
99.9468936038806
99.9469052666875
99.9468870665646
99.9468329339308
99.9467385101892
99.9465171341608
99.9463945395783
99.9463164092034
99.9462090492858
99.9460838600744
99.9461058041123
99.9462040177881
99.9462886286884
99.9463796619234
99.9465963325291
99.9434159162608
99.9437701959374
99.9438808384369
99.9438858641959
99.9438271690525
99.9437432653645
99.943595904868
99.9432756019255
99.9430346551921
99.9429076587948
99.9427125672358
99.9425158689368
99.9425472295394
99.9427070360853
99.9428173185695
99.9429891357272
99.9378076353351
99.9385263140714
99.9387434522535
99.9389144382508
99.939096555966
99.9390776605531
99.9388341919613
99.9384988610416
99.9383454379437
99.9378668169036
99.937351555083
99.9369626290574
99.9370812922725
99.9371082124162
99.9369850426356
99.9371950695836
99.9222205108365
99.9242165663753
99.9250615019291
99.9241498488868
99.9246025233271
99.926570743241
99.9266030728933
99.9246533404126
99.9240623589332
99.9248833849035
99.9238700822206
99.9218992542943
99.921316392812
99.9226827542021
99.9227055898144
99.9215447472518
99.9343033913592
99.9357734268896
99.9334482517954
99.9346723767917
99.9389160719662
99.939464956053
99.9364532349622
99.9364972061142
99.9395409778482
99.9389512313625
99.9345759248537
99.9328950390801
99.9351165581537
99.9338980749049
99.9303672152468
99.9305582185983
99.9875721959474
100.040976391022
99.9988461450929
100.00030416218
100.044047455749
99.9915503683305
99.9924397355272
100.046990128268
100.004555570665
100.006601665463
100.051334650053
100.084734102634
100.084560445936
100.051265800561
99.9974018018908
99.9972480134498
100.121440002575
100.221772303265
100.180815529659
100.181212647854
100.152686711134
100.144987197996
100.142316159724
100.004552076005
100.046824403682
100.076626198156
99.9923443581569
99.9900903677789
100.042816866889
99.9991363229005
99.9981883222969
100.040578218103
99.9874316878589
100.071884291845
100.072032346621
100.165308874863
100.140215123578
100.135784275486
100.135563560597
100.142100144725
100.170689504039
100.171949097376
100.146592338443
100.142652624067
100.144759691943
100.152336649425
100.24443368793
100.285907760108
100.265406114882
100.266000586697
100.287164991614
100.273246059309
100.24510777713
100.339630246433
100.374569601235
100.350062255681
100.337596543491
100.336422692367
100.340982747157
100.277294580875
100.239867187014
100.272680989462
100.334798773103
100.36804308607
100.390140245445
100.396493019727
100.398162976717
100.402490760418
100.404351559002
100.40439097068
100.403859146432
100.40342063559
100.403167711909
100.403181960731
100.403289785827
100.403329574251
100.403357848325
100.403413274459
100.403529833299
100.403774531237
100.404241346578
100.405270636294
100.408000310215
100.413271771862
100.425363840856
100.446930660263
100.485930491604
100.486263312697
100.424401969684
100.369862019972
100.31491184086
100.283798836193
100.303987379967
100.303213639892
100.301091038098
100.301426322903
100.3024622593
100.303506123628
100.304703523735
100.306247203006
100.308090627456
100.310041421848
100.311845901292
100.313242321671
100.313983723882
100.312676070938
100.311101891665
100.309401418341
100.307708527662
100.306061267129
100.304450012357
100.302904371186
100.301499472626
100.300323871762
100.299394447295
100.298684166439
100.298168953623
100.297794632706
100.297526317874
100.297338423231
100.297215762544
100.297165045923
100.297209369669
100.297374373444
100.297715252763
100.298295608393
100.299300808021
100.300636817608
100.301871460807
100.302294201744
100.30223697483
100.30237114967
100.302287886977
100.302514260465
100.302416481404
100.302509722838
100.302460266601
100.302398854109
100.302182804975
100.301926352529
100.301897595859
100.301901216707
100.302245897133
100.302203507355
100.302171618635
100.302351737814
100.302414389938
100.30244954527
100.302390205917
100.302452292004
100.302287863924
100.302319591565
100.302219762669
100.302253542536
100.301911366177
100.30124069322
100.302046082999
100.302252131621
100.302243612808
100.302301213281
100.302296388046
100.30242251895
100.302379971659
100.302416664232
100.302393810691
100.302328498628
100.302325774587
100.302178189987
100.302257615464
100.302416293501
100.302406796429
100.302429964716
100.302387625576
100.302400484866
100.302377190147
100.302407977399
100.302303278345
100.302291219951
100.302244923017
100.302248633195
100.302026527886
100.301713086511
100.302174419515
100.30225583422
100.302269408652
100.302295449397
100.302318013024
100.302401417536
100.30238929977
100.302408946387
100.302405412095
100.302392771481
100.302486745746
100.302492684536
100.302451569035
100.302135476611
100.301890654942
100.302122407507
100.302410506631
100.30234889368
100.302544700822
100.302578792269
100.30253193862
100.302417058216
100.302443821173
100.302413181641
100.302333439591
100.302303295205
100.302287658009
100.302296148864
100.302186215198
100.302264765069
100.301729076361
100.301090152903
100.3019797491
100.302243959356
100.302241298751
100.30231367642
100.302344245911
100.302328882655
100.302378268434
100.302443360572
100.302449648749
100.302441867649
100.302451471375
100.302585755691
100.302662063848
100.302633489772
100.302506282126
100.302635784706
100.302817743772
100.302748731727
100.302735427208
100.302644249835
100.302494492715
100.3024725348
100.302478973206
100.302421059413
100.302382651405
100.302352672533
100.30236500118
100.302375086574
100.302288199455
100.302306718139
100.30200661235
100.301763698304
100.302229814829
100.302363970863
100.302349687812
100.302415935628
100.302404641956
100.302445013637
100.302460705804
100.302512881904
100.302547905634
100.302580973946
100.302740859243
100.302891010766
100.302810041033
100.30289780581
100.30279459633
100.302613248935
100.302634251538
100.302842657921
100.302989376364
100.303007255305
100.302885959817
100.302689832609
100.302948870272
100.303029561967
100.303159458558
100.303237896112
100.303235566241
100.303119751298
100.30305229616
100.302904278729
100.302678438959
100.302657387502
100.302581321112
100.302530275586
100.302495763877
100.302512120874
100.302460600045
100.302408505998
100.302430818815
100.302184491221
100.302177078728
100.302416272861
100.302485452129
100.302474838434
100.302510224527
100.302604297932
100.302562230795
100.302622459278
100.302636956179
100.302655527996
100.30269986035
100.302735518452
100.302972923129
100.30313206229
100.303241467838
100.303213534797
100.303214813422
100.303083951322
100.303063695153
100.302866298647
100.302794085765
100.302725985614
100.302700132822
100.302654604537
100.302604778611
100.302626995355
100.302614351197
100.302614313676
100.302543689838
100.302331665908
100.302508860234
100.302556046497
100.302595658536
100.302683333464
100.302659984776
100.302670169889
100.302746740641
100.302816525313
100.302827935063
100.302899922927
100.303146819645
100.303278368082
100.303282658584
100.303196747399
100.303002923328
100.303240908397
100.303270098547
100.303422136548
100.303407999665
100.303316386243
100.303203425564
100.302999987142
100.302940308364
100.302837145476
100.302865821901
100.302834919723
100.302772000853
100.302778843133
100.302735191829
100.30267477925
100.302730019559
100.302732228249
100.302403722678
100.302526465291
100.302676091723
100.302573372464
100.302790610029
100.302734762764
100.30283567369
100.302792557013
100.302869792719
100.302920567995
100.302970035792
100.303069039624
100.30309442536
100.303275228905
100.303423165334
100.303385054989
100.303425241237
100.303293300873
100.303341321415
100.303478642811
100.303556870024
100.303509375002
100.303668566325
100.303738717449
100.303713026972
100.303597042772
100.303461223299
100.303238036016
100.3031255949
100.303058422569
100.303033321399
100.30296372025
100.302914491646
100.30300189771
100.302822452587
100.30287233159
100.302802770806
100.302802991329
100.302501527699
100.301838909392
100.300983737388
100.302048474459
100.301374760842
100.300597824136
100.299788813791
100.299121595262
100.300429145593
100.299804870871
100.29863450519
100.297900263202
100.297442591857
100.297193365554
100.297102500155
100.297127362286
100.297243772791
100.297427273463
100.297686933359
100.298042766919
100.298527343445
100.299198913186
100.30008930165
100.301240848128
100.302624620242
100.304149208608
100.305711341345
100.307278847029
100.308873142932
100.310462857332
100.311912547332
100.313108065914
100.313977840865
100.314939019359
100.315507601592
100.314495229171
100.313115126488
100.311459204063
100.309685256962
100.307930781228
100.306240574371
100.304609105012
100.303058955068
100.301650611276
100.300461978332
100.29950622044
100.298771222603
100.298237617037
100.297854088924
100.297582073734
100.297392656215
100.297267145691
100.297205163033
100.297223336908
100.297347501901
100.297633457875
100.298143992432
100.299067342316
100.300360188335
100.301756985632
100.302337303888
100.3023718282
100.302424662064
100.302458068851
100.302578523055
100.302472300197
100.302615050534
100.302567103773
100.302514047654
100.302289334736
100.301992213602
100.301980949324
100.301450899114
100.300839026283
100.300053967039
100.300061994614
100.300253780416
100.300460566995
100.300847993062
100.301401530652
100.301331157044
100.301065829773
100.300945473813
100.300848935196
100.301437215188
100.301496581666
100.301616495314
100.301832785458
100.302080984803
100.302270073768
100.301928100031
100.301586552567
100.301119968291
100.300547793713
100.29961718575
100.300109024337
100.300851683253
100.300879061172
100.30140368673
100.301562323167
100.301084943089
100.301482487545
100.301754938058
100.302194483631
100.30214857007
100.301971240736
100.302341196905
100.302477938071
100.302660673436
100.302340691102
100.302004791792
100.30159242859
100.300898190033
100.301325663851
100.301793798514
100.301862250057
100.302359025226
100.302637207023
100.302168595105
100.302380881525
100.302726393559
100.302781407918
100.303053169617
100.302921035101
100.302707952063
100.302830890329
100.302834455026
100.302728612993
100.302560812866
100.302557556831
100.302503160585
100.302471926052
100.302393635247
100.302334667136
100.302263723876
100.302238355434
100.302238661989
100.302232126077
100.302208817831
100.302215008601
100.302212509203
100.302210744044
100.302222150015
100.302325403644
100.302273769055
100.302450430443
100.302304306484
100.302560710782
100.302440636778
100.302572882733
100.302521174947
100.302474829429
100.302239465945
100.30214729301
100.302348460946
100.302492930214
100.302535993412
100.302571281127
100.302584854623
100.302602138459
100.302601679209
100.302539085689
100.302291248368
100.30199829483
100.301453679588
100.300833828429
100.299974734545
100.300009905129
100.298839241482
100.297644477326
100.295736148785
100.295889861072
100.297369427327
100.29775251796
100.298845897286
100.298859275605
100.297769058189
100.298223481192
100.298694039172
100.299216509803
100.297831334116
100.296766452332
100.295152188956
100.296573154101
100.297146141925
100.297894838598
100.298517624344
100.299039444478
100.299847634944
100.299983511734
100.299631356739
100.298875491468
100.298158357807
100.297917085066
100.298630679026
100.298168879974
100.299317350475
100.301552429366
100.301905526408
100.301966367213
100.301934868737
100.301811388044
100.301729996241
100.301631467014
100.301781263975
100.301586555258
100.301530885353
100.301704340125
100.302336967893
100.302391253669
100.302448512752
100.302513126063
100.302493509638
100.302608791579
100.3026194979
100.302612715026
100.302613266956
100.302555860793
100.302283396795
100.3020363428
100.301439496872
100.300839274144
100.300000064202
100.298726876067
100.297572146786
100.295516367218
100.29551309612
100.293021502269
100.289931462238
100.290423017032
100.291000133359
100.292081965897
100.293157675784
100.294159003126
100.291966711852
100.290027281701
100.291810940885
100.293378330891
100.294301603098
100.295575930202
100.295657857494
100.294799836497
100.29340110534
100.292837173747
100.294254722629
100.295649272849
100.29619618068
100.295886720329
100.297296542426
100.298748773659
100.301176275178
100.301643140777
100.301439103818
100.30057482525
100.301277073614
100.301178449377
100.300283481851
100.301107752888
100.301116307192
100.301537061229
100.301704745166
100.302337234719
100.302393233309
100.302452658076
100.302519698393
100.302500294474
100.302590734236
100.302502015528
100.302646561185
100.302601740401
100.302564943133
100.302300238793
100.302068148267
100.301498668862
100.300866150005
100.300060136285
100.298803585816
100.297666351166
100.295720881895
100.293260538278
100.29027259328
100.289877369457
100.286117843645
100.281826513147
100.259544470503
100.259208146132
100.263041147073
100.280111442736
100.282871148007
100.281869642651
100.286157735136
100.286797371692
100.287583990832
100.281543988478
100.285179793361
100.287746508812
100.284205741175
100.279574206393
100.271845182594
100.279251099343
100.284483301698
100.284354801598
100.287095992068
100.28929045873
100.287338684801
100.290385632955
100.291878039186
100.293311460963
100.294504137276
100.294408869715
100.292811676317
100.291497197072
100.291124017751
100.292539897759
100.293780741978
100.29428837359
100.294748141009
100.292800899332
100.293828357165
100.294111143279
100.294313375716
100.29433682707
100.294680227511
100.294258411914
100.292558507659
100.29345044208
100.292219169465
100.295198188131
100.293732481398
100.293576009037
100.293835869768
100.293752359647
100.293300677285
100.294043784887
100.293937075922
100.293549657096
100.292381018674
100.291532637846
100.293355562426
100.291787467417
100.291570365119
100.291821393702
100.292391949442
100.291622246052
100.291366401282
100.291680721504
100.298524904961
100.298034433784
100.297917198364
100.298194544419
100.299797271302
100.301809624977
100.300302640724
100.299845572568
100.300219748484
100.296921178835
100.298211536932
100.297028185455
100.295016705326
100.294546888557
100.296224821862
100.297786803943
100.296801884213
100.296670105776
100.295553211606
100.294792127094
100.295448507218
100.295572832524
100.298579979976
100.30011862236
100.301548379581
100.302069642803
100.302184559889
100.30215532125
100.301919717292
100.301833327187
100.301550318927
100.301368111973
100.300828511793
100.300243224225
100.299985285813
100.299997031394
100.300372445291
100.301758377865
100.3023398589
100.30238089683
100.302437184688
100.302473791222
100.302602145981
100.302606755708
100.302488689656
100.30262981257
100.302584521202
100.302548606564
100.302315561274
100.302054386845
100.301544042887
100.300902128237
100.300080757194
100.298957569168
100.297737278642
100.295923497266
100.293631825208
100.290906353015
100.287545399498
100.281452095957
100.280007209644
100.263659870122
100.245188808653
100.16781867716
100.183493078614
100.201920018288
100.20507325881
100.20128565801
100.196299815187
100.20693484729
100.203459132139
100.198128242769
100.209259113096
100.205636685802
100.198755222854
100.208547696294
100.205189505147
100.198077388303
100.207397928099
100.204060591412
100.196993145309
100.206043266755
100.202767949223
100.19590638428
100.203978812724
100.201795527292
100.202326830859
100.201752005908
100.20050112793
100.200523986426
100.200754382732
100.200281728619
100.200272237538
100.200619179438
100.200137411561
100.199829016476
100.200362571572
100.200290766839
100.20001318935
100.200085352921
100.20026398317
100.200426443495
100.200902722792
100.200580845415
100.200259332081
100.199979844199
100.20055461845
100.200414433554
100.200086645085
100.199401009972
100.199338710569
100.199971036792
100.200351735893
100.200515961435
100.199956952882
100.200248713616
100.200573405075
100.200897459307
100.200415954208
100.200254721346
100.200085918597
100.200026750959
100.200293266537
100.200364509633
100.199826687273
100.200132553373
100.200614072652
100.200269395801
100.200296179554
100.200709126799
100.20049309372
100.200490751475
100.201753383538
100.202334430171
100.201809441052
100.203999986618
100.203168396195
100.204259061186
100.20260346659
100.201808272872
100.20343170312
100.203134235552
100.201673226964
100.201286913783
100.201561924721
100.199116844057
100.199938751418
100.200396982698
100.20048379215
100.200554167351
100.200295655385
100.199836636934
100.200319834152
100.199536245345
100.199545693795
100.200595229824
100.199617515914
100.201341178627
100.200881755239
100.20080673582
100.200516049234
100.200601480854
100.200456789448
100.200431309417
100.200482042195
100.200947302022
100.200286814283
100.200187107472
100.200155362981
100.200304507908
100.200833107961
100.200387352414
100.200396480846
100.200440890339
100.200554763393
100.200149673926
100.200299952121
100.200781245104
100.201526440204
100.200094025661
100.200104934622
100.199914957586
100.199930503943
100.200139620456
100.200101582833
100.201533584271
100.200790148899
100.200311821989
100.200157384737
100.200556915126
100.200739223518
100.200917953004
100.200914483311
100.200738274931
100.20060240512
100.200645211624
100.200646260157
100.200603024362
100.200719247655
100.200389496405
100.200398588154
100.200443968478
100.200978018811
100.200144137728
100.200363939474
100.201829611646
100.201351631294
100.201530147183
100.201141472305
100.202329785793
100.201665710114
100.200871606109
100.201248614827
100.20150387105
100.201516818324
100.20123187082
100.200855791452
100.201659670285
100.202345287803
100.201137802156
100.201523873862
100.201344508418
100.201822126924
100.200866993524
100.202639899621
100.201922810803
100.201812443427
100.200770648983
100.200689077982
100.20003238347
100.201116427366
100.199765249031
100.200859801282
100.20144355392
100.200427777747
100.201667653574
100.201211123583
100.203110906665
100.204094804713
100.201048925934
100.195937068004
100.202786565601
100.206084384358
100.197031900373
100.204100033126
100.207456831946
100.198132253338
100.205252360822
100.208643323563
100.198818693827
100.205720552571
100.209422385104
100.198280122395
100.20362327913
100.206992479103
100.196531599902
100.201788929451
100.202325378933
100.199535080681
100.196908740205
100.196792366719
100.201837473569
100.199423417593
100.197522170131
100.193544865314
100.198330851509
100.198400446739
100.193627033583
100.186106595698
100.185620547666
100.164257329368
100.237393803816
100.236841428848
100.165243280843
100.16845422311
100.183676024013
100.201856150772
100.205030580523
100.193478277025
100.188294348844
100.193482333969
100.191532493467
100.197549965656
100.205921253937
100.201857872662
100.202106155195
100.20618583826
100.203019957385
100.20236295267
100.204947477482
100.202242545418
100.201694600841
100.203365253098
100.20114618048
100.200859744649
100.201814971205
100.199969168351
100.203782293846
100.20283848448
100.2011033784
100.20166042643
100.20300162534
100.201657158573
100.201263336702
100.200397114783
100.202572193675
100.202622674077
100.200182610879
100.204140245888
100.204636235339
100.201648783366
100.20498401581
100.206245606126
100.202708201752
100.206005576563
100.207089898347
100.2034886018
100.201333584387
100.186452031316
100.1762742209
100.177621115554
100.186721862182
100.184345997127
100.183177707308
100.190697504428
100.178751868264
100.182106228416
100.176296145701
100.176409322584
100.183695920093
100.229258386876
100.254392353873
100.230836433591
100.15956253789
100.1609060649
100.185347530365
100.152099884729
100.136676839512
100.205416416473
100.247540564828
100.27052961941
100.279732714124
100.285637576174
100.287867882598
100.287585006288
100.282904384626
100.275145414294
100.261544788553
100.268378555774
100.276893520322
100.284277216028
100.287865979434
100.291088550406
100.293702611
100.293575447518
100.29637203115
100.298008750825
100.297345944081
100.297222587245
100.297214595412
100.297402656777
100.300287510836
100.300667439083
100.301783116273
100.302331384336
100.30228980321
100.302473051878
100.302337194965
100.302330514585
100.302575927761
100.302477287826
100.302582899368
100.302540650913
100.302482788163
100.302274174273
100.30201287596
100.301535615017
100.300937887929
100.300134737032
100.299071555064
100.297923564573
100.296181648289
100.294262260208
100.292002183024
100.289221020564
100.285079243021
100.280728175482
100.274235821907
100.254443221931
100.228951172827
100.184080862347
100.177168288431
100.176887348879
100.18258600198
100.193808183811
100.188158270478
100.192729399666
100.191648361332
100.197789196923
100.205893952218
100.201788842056
100.202086966764
100.206150072239
100.203007425655
100.202361206574
100.204928906806
100.202222576694
100.201698391454
100.203370497309
100.20113387554
100.200867992951
100.201807326305
100.199961208819
100.201784925391
100.204087382142
100.203126043203
100.201679872248
100.201281011123
100.201580708241
100.201817244222
100.203435766456
100.203158802485
100.20427533287
100.202611902975
100.202213258656
100.202901235907
100.201333584485
100.200799934223
100.202149043014
100.203797951643
100.202839879216
100.201109499555
100.201677952531
100.200426565665
100.20145245308
100.200866844555
100.199765797328
100.201128613807
100.200039097207
100.200693558182
100.200776163621
100.20183379175
100.201954425465
100.20266823284
100.200881606921
100.200217661236
100.200868998263
100.200217551598
100.200783041089
100.200449572983
100.20086180767
100.201491833704
100.201060690676
100.200489509437
100.200546722626
100.202960543615
100.205038403386
100.202676989571
100.201815673982
100.201996844908
100.202398737824
100.202158568386
100.20264739826
100.202629326227
100.202140620581
100.202380026801
100.201981385957
100.202652616038
100.205039716357
100.202969710635
100.202961657673
100.203808749932
100.202862593836
100.201966688855
100.201896782382
100.202293232455
100.201355499098
100.200541673056
100.201970776369
100.201285060847
100.200060152695
100.202517934756
100.202878285125
100.202102503633
100.201872140497
100.202621070194
100.204282699697
100.203522294978
100.202453371281
100.203321146499
100.206166233944
100.205427670722
100.202202088604
100.202858153138
100.207824140622
100.208374212816
100.201372991859
100.188686171439
100.182767084705
100.177095248683
100.1801730071
100.181077804474
100.184734788795
100.185588357282
100.181837563866
100.173888820111
100.173480624721
100.173976199999
100.170078434049
100.159281180936
100.162208630303
100.177970657011
100.175439042473
100.17700149534
100.195851359349
100.198181878865
100.2105850999
100.228963005779
100.217659678486
100.223082378491
100.242951701447
100.261973596725
100.24422042658
100.264753200807
100.275949568913
100.28091255841
100.274442316548
100.273714085158
100.281317741613
100.287016189093
100.290633696923
100.293253540471
100.292483094128
100.291955516883
100.291616854303
100.297070254787
100.297543214278
100.298002597039
100.296458366257
100.297064837196
100.299009244508
100.297077530261
100.298925247038
100.299609136775
100.301419895211
100.301583332506
100.301251355771
100.301807939851
100.299147804633
100.300095850236
100.300081584625
100.299363609768
100.299970915312
100.299363859398
100.299388573756
100.299301522568
100.299318670083
100.29942159606
100.299755616416
100.299848948176
100.300080359265
100.300257495096
100.300149287423
100.299702323547
100.299129507598
100.298968894344
100.299265907311
100.299424752468
100.299514580518
100.29940850927
100.299402677862
100.299443328461
100.299339216094
100.299363312349
100.299225170075
100.299145534218
100.298526069141
100.298776965523
100.298903751485
100.299241907863
100.299542017669
100.29956692288
100.29929892274
100.299059263297
100.299332306025
100.299520149692
100.299519262228
100.299279974786
100.299668307517
100.299391751057
100.299267687435
100.300015413835
100.300662903922
100.300191809802
100.300202022971
100.299828741093
100.299388105413
100.299184986287
100.299837863141
100.30041159171
100.300379923109
100.299850558604
100.300128378933
100.300569519925
100.300510152003
100.300388975069
100.299888358862
100.299953434386
100.300494458726
100.300549024354