/*--------------------------------*- C++ -*----------------------------------*\
| =========                 |                                                 |
| \\      /  F ield         | OpenFOAM: The Open Source CFD Toolbox           |
|  \\    /   O peration     | Version:  v1612+                                |
|   \\  /    A nd           | Web:      www.OpenFOAM.com                      |
|    \\/     M anipulation  |                                                 |
\*---------------------------------------------------------------------------*/
FoamFile
{
    version     2.0;
    format      ascii;
    class       volScalarField;
    location    "1.2";
    object      p;
}
// * * * * * * * * * * * * * * * * * * * * * * * * * * * * * * * * * * * * * //

dimensions      [0 2 -2 0 0 0 0];

internalField   nonuniform List<scalar> 
79587
(
100.072620667452
100.074564985546
100.071189396204
100.075536527115
100.082578231705
100.082693875273
100.080649496745
100.081174453884
100.081287596029
100.081661936254
100.081949374733
100.081761615013
100.083640088319
100.083328322775
100.085666268923
100.085624236446
100.082306504792
100.077659870657
100.076642083002
100.076639132371
100.077629488288
100.077346491133
100.076564980099
100.078109962606
100.084519148248
100.084417677368
100.078761193631
100.077092607587
100.077065963926
100.076248987997
100.076121639747
100.077189629545
100.07710119484
100.07871605389
100.084178892111
100.084082464195
100.077907930548
100.076523151188
100.07733264472
100.077403481446
100.076500235669
100.076504916418
100.077572386463
100.08213701466
100.085280304825
100.085136742967
100.078238272374
100.077786065938
100.075499694784
100.074790874612
100.074918498018
100.074785878443
100.074193213361
100.072871549572
100.073988772047
100.075306417342
100.075405319231
100.074498616022
100.073533018018
100.072309180285
100.071979816835
100.072570283294
100.072494359304
100.071818943741
100.072321156319
100.073516358066
100.074346260077
100.075431600095
100.075507164737
100.074091940203
100.073013653701
100.074367682699
100.074860686134
100.074965212308
100.074751556862
100.075456617205
100.077994992174
100.078716840904
100.076307028999
100.079208261933
100.082123167878
100.083474481908
100.081151929035
100.080961218024
100.082353502391
100.080634679721
100.078273160237
100.074043204316
100.07932053537
100.068089920512
100.057087965048
100.062856467557
100.06395229725
100.074897386507
100.070568114136
100.071197286737
100.073521653194
100.071646446563
100.070164478611
100.069579418225
100.072299578251
100.074116582344
100.069976282771
100.06921459067
100.071413623374
100.068152667695
100.0670412918
100.068272643327
100.068274406146
100.06708762829
100.068163664225
100.071357445613
100.069089200181
100.069524040257
100.074162434729
100.072737882141
100.069869322038
100.070309093799
100.071696868791
100.0735167213
100.071101926341
100.070408882845
100.075158304004
100.075182604225
100.072163661246
100.075275546391
100.081486598362
100.08617483468
100.07911870448
100.079061989364
100.083867292331
100.099810625616
100.069508055885
100.070029499591
100.054338988777
100.027353222452
100.028289300737
100.024114758085
100.024413914419
100.030701767883
100.062121824305
100.073329319867
100.069034904468
100.068775430765
100.075467360684
100.06368526134
100.06438191573
100.064216304358
100.064449088319
100.072205009939
100.067742716816
100.06772518674
100.072142846974
100.064467619482
100.064281131962
100.064417320822
100.063548531265
100.062250352775
100.064252041074
100.062208988793
100.022576550311
100.024994298842
100.025800006438
100.025435280477
100.024829777621
100.024917254731
100.026390258401
100.027001407896
100.031137170127
100.028386483896
100.029378339573
100.032894088194
100.032900067349
100.029428978004
100.028407085779
100.030951997908
100.03045421902
100.023847414828
100.024662499112
100.031232769022
100.031906105266
100.03050200163
100.030152474847
100.03142561721
100.031332176261
100.030514764588
100.030832341785
100.031016365336
100.026051287313
100.026888353496
100.02813062519
100.028088649286
100.026816507402
100.025912815556
100.026814975865
100.026145530299
100.03033641492
100.031678817934
100.032268630122
100.032419471131
100.031795242866
100.031896431536
100.03255522601
100.032438323171
100.031874621116
100.032069333682
100.03221697003
100.032239774649
100.031415082672
100.031098683473
100.031038718137
100.031290570124
100.030838589396
100.030636944027
100.031886017097
100.030158351824
100.029977475068
100.030155845774
100.029978525424
100.030262268284
100.030579415858
100.030458835745
100.030319327408
100.030110087762
100.030288342372
100.030277102109
100.030287140571
100.030176421158
100.03190744128
100.03186561761
100.032144382822
100.032042346001
100.030161400294
100.027851348886
100.027876686176
100.027754065159
100.027838216592
100.027759039723
100.027564444082
100.027579234085
100.027790118365
100.027844656848
100.027752957474
100.027915535176
100.027889936088
100.027972207704
100.027937745925
100.027923821963
100.030153046453
100.030269561627
100.027963033832
100.026066383829
100.025964174278
100.025979733472
100.025884357546
100.025958160025
100.026043434958
100.026126084451
100.025858941834
100.025622805405
100.025803009244
100.025741254972
100.025905874154
100.025910397166
100.026034942348
100.026033803662
100.026039091822
100.024374131777
100.024389363922
100.024272762124
100.024265367739
100.024154915269
100.024134975614
100.023978722188
100.024205593636
100.024058849882
100.023726446012
100.023956084743
100.023891845566
100.024073022976
100.024120671334
100.024295075993
100.024342258834
100.022597929919
100.022656974675
100.022632734708
100.022452361536
100.022397646394
100.022226430667
100.02213586409
100.021812369719
100.021411540988
100.021438839681
100.021746631242
100.021893701175
100.0218833135
100.022100091841
100.022200326919
100.022476117991
100.020318100974
100.020562950697
100.020646024208
100.02054494344
100.020258970745
100.020137360381
100.01984153088
100.019695197474
100.019515459939
100.018599838651
100.018581016356
100.019323635776
100.019324110523
100.019457555555
100.019725876624
100.01990748552
100.016595963128
100.017383452661
100.017837264577
100.017944801012
100.017640252931
100.017045013235
100.017112862166
100.016628520333
100.016118837108
100.016268965311
100.014638568752
100.01453630228
100.015930200647
100.015632865315
100.01618430045
100.016576396416
100.01178853313
100.010913619432
100.012583231708
100.013709719788
100.013846672735
100.012947049177
100.011487528913
100.012542660077
100.011994256645
100.009905160535
100.011276523814
100.007677719138
100.007510789155
100.010842498955
100.009297211976
100.011312535796
99.9996578563252
99.9995671602535
99.9944083474649
99.9976692755791
100.001812384981
100.002018836925
99.9983238196168
99.9951840711102
100.000680574553
100.000661058767
99.9930201653753
99.9971825368574
99.992502708279
99.9922356033528
99.9964921361587
99.992483359616
99.9989932909141
100.007417070402
100.006245282839
100.000393510669
100.007423589298
100.009851245296
100.01012787282
100.008191175929
100.001557272156
100.007612529671
100.008936089941
100.000375692527
99.9963104099235
100.027596041425
100.049672199339
100.049261961401
100.026706113171
99.9933500693441
99.9940213788969
100.087145192443
100.171402093328
100.108178298767
100.1080506977
100.093429029547
100.081497744886
100.070153500788
100.067413910601
100.063531806323
100.063259261184
100.076782148845
100.069955913284
100.070409058197
100.077901789087
100.06523932176
100.065524017178
100.069986830714
100.072293803924
100.082712933951
100.093894837779
100.186165230031
100.203167610532
100.202849123158
100.185192429546
100.186935900272
100.176111092971
100.200484085741
100.240867223127
100.153365711176
100.154970973179
100.206216277668
100.170854241755
100.197725541146
100.223197591696
100.164165036498
100.164697582619
100.224366726073
100.199329951842
100.173293534901
100.209077382344
100.157338604875
100.155785670559
100.203422108803
100.179077193814
100.188453401709
100.277301255884
100.322835550291
100.292627161618
100.292094436366
100.3216390554
100.293285413061
100.275565819745
100.399932319642
100.430662242289
100.384183830156
100.401399614384
100.401329154597
100.35257600019
100.294561935713
100.325090162784
100.272621332017
100.395476748375
100.429070665184
100.383721072792
100.38491750133
100.310963509202
100.313337156735
100.242621040423
100.291466115502
100.376312018784
100.42112789395
100.386655408813
100.394487357315
100.330084539049
100.283836502509
100.325218220169
100.306589663751
100.311928016774
100.33718761256
100.247453212468
100.247752942221
100.337292023224
100.313267292415
100.308564779756
100.327847644642
100.286591129116
100.333662891941
100.318173998516
100.315365381199
100.32866664461
100.298209780057
100.295982038866
100.35529845023
100.402787861859
100.385118500839
100.400320946333
100.431350332773
100.431446709439
100.399983061078
100.371227658098
100.371336890941
100.449106475597
100.471949400948
100.463200234199
100.463315049911
100.464336344365
100.451127148468
100.435282599269
100.478482219399
100.478715780464
100.476284638046
100.470903769149
100.465001237928
100.46030893487
100.444598443575
100.441553372451
100.443203628238
100.452209460213
100.422416164929
100.421833010822
100.423053196172
100.430830481625
100.453092865288
100.451226911163
100.433577005529
100.391947712424
100.401128392478
100.381023298907
100.415228383211
100.404714844959
100.404461607987
100.415183008376
100.382283242026
100.402746866068
100.394546878648
100.397690765171
100.391767903477
100.38961555507
100.38760683152
100.404006847666
100.443984376756
100.445549401917
100.451722662887
100.463840631239
100.475916989782
100.473164848531
100.48173110491
100.481458043565
100.473910403096
100.473205224022
100.472915274327
100.478082220874
100.474143582299
100.476899776235
100.477704255849
100.479809285206
100.474360738288
100.477614271819
100.478097201271
100.477089800867
100.478226472542
100.479331966581
100.476249297271
100.477894645697
100.476700172009
100.476203366657
100.473678044901
100.469932410687
100.46600842251
100.468162422106
100.45816526152
100.476272497443
100.476597465144
100.473466205228
100.472541450588
100.477985703827
100.470426580909
100.468011396425
100.471039383125
100.453154535775
100.454175082968
100.455280514106
100.469712326163
100.467119419241
100.466258666303
100.467637659163
100.452499169376
100.447560232175
100.452988694972
100.439612969107
100.438941621308
100.452495032657
100.447126940893
100.452496380918
100.435174988247
100.453060743942
100.455225174945
100.434638814143
100.42814363444
100.426396254864
100.426311046031
100.446092330274
100.460126305684
100.466556317862
100.46587299179
100.470092911714
100.476627358577
100.473655607906
100.480978843852
100.478115879654
100.478052285704
100.478255869271
100.478615616449
100.47790235857
100.477696946177
100.477703006992
100.478120239745
100.479264374259
100.478516839189
100.47807059259
100.478100637025
100.477656214669
100.477579676693
100.477433821384
100.476181778282
100.476181777382
100.476333646314
100.476419477343
100.476758124469
100.477536609862
100.478394042385
100.476582485739
100.4769240222
100.477354825524
100.475767205211
100.475969625047
100.47446222427
100.473263094088
100.475205790961
100.475693369212
100.475058801278
100.473483664454
100.474773543175
100.473213553096
100.474797367242
100.475904683215
100.476681408378
100.469760517777
100.470388510173
100.472435176289
100.472532932851
100.474645540608
100.468738897268
100.430876222753
100.427477803477
100.431578069559
100.442385230672
100.443981638091
100.434240211822
100.433062735289
100.429001223717
100.425827105513
100.422410271153
100.426203825534
100.417686430378
100.425794839782
100.443866341172
100.432186421142
100.436515439012
100.447071939763
100.468764863039
100.467825954046
100.472000660729
100.460966376296
100.463555477829
100.464939331898
100.46649098873
100.459370096547
100.449367189809
100.449307953363
100.426635434635
100.430217894033
100.434481331185
100.432434525431
100.425637932024
100.419600629521
100.432878581456
100.421643891978
100.421233178519
100.434666666982
100.439618261191
100.426013142966
100.424326487322
100.446887882078
100.478096710785
100.478418269505
100.466216305085
100.482424913822
100.465637766522
100.494472418341
100.4761624135
100.460732995545
100.465398109977
100.466645560854
100.470627517564
100.46322985761
100.467890242925
100.452455413385
100.433176077741
100.42705181881
100.432065270486
100.411040842177
100.417630478329
100.439971841414
100.435709036388
100.427404871466
100.422071265717
100.435297501146
100.425443570664
100.423318892539
100.432463018404
100.422783976632
100.423297714956
100.423957674859
100.426463748067
100.424323027377
100.446787345747
100.478261982025
100.478539103841
100.466723535773
100.483484785138
100.479874206078
100.43679109545
100.436404903676
100.435417344126
100.428411526234
100.435895230026
100.479011790603
100.478844236462
100.474539236096
100.487373771367
100.482220208978
100.463143899416
100.444393432446
100.463195431225
100.467774902519
100.466684189662
100.466902282415
100.468024456912
100.452716858219
100.433213517374
100.433448466504
100.433399084445
100.438303030388
100.438455316177
100.434660325362
100.437817875348
100.430562143358
100.421538240744
100.426987082504
100.438087316769
100.431388933665
100.443616639704
100.43321728612
100.432514979448
100.440513362538
100.429077221839
100.430229743139
100.423508173251
100.435321063163
100.436590141758
100.440936299841
100.437395104202
100.447828825345
100.470087752147
100.46881394654
100.473569177749
100.467405653878
100.496907959414
100.480686401014
100.429978765387
100.435249482307
100.434192780368
100.46912662379
100.469345800456
100.489895669722
100.48602420013
100.486552334567
100.46871269304
100.471939562029
100.464022892258
100.449695541758
100.42714854525
100.427582960204
100.43272040016
100.438277146698
100.438005417596
100.441908462553
100.442302064534
100.435396187185
100.435229610745
100.451188107477
100.446404259313
100.450253151702
100.450972583811
100.444729308577
100.441931639491
100.441154055579
100.440769677141
100.44783219888
100.44952307229
100.441467171795
100.443503724453
100.4440692181
100.435099008651
100.42658984765
100.423592183426
100.424836561105
100.43307384002
100.445934265311
100.465850843702
100.463207468334
100.463704032417
100.478971804223
100.484657763926
100.490271057539
100.476650801351
100.470257074246
100.470086180115
100.490719329809
100.464750930539
100.461360013644
100.467590430925
100.464489854328
100.457674889519
100.47216071842
100.473202984947
100.474838774898
100.473816604229
100.471779643861
100.470191391823
100.472217487182
100.474416430911
100.475263689128
100.475814860378
100.476306917831
100.476155354273
100.475728727519
100.475118234267
100.474303602943
100.473712895628
100.473612096712
100.477519845853
100.485800956682
100.511583485177
100.512957000582
100.463016200413
100.423146120268
100.381404961661
100.357535246717
100.375515589445
100.373335053818
100.371980370826
100.372506999103
100.373412497538
100.374291009459
100.375324898888
100.376619289138
100.378066290492
100.379465419245
100.380612256983
100.381366397001
100.381694993823
100.381737999053
100.381670156656
100.381465910515
100.381077740774
100.380469532639
100.37958742913
100.37841735152
100.376919093781
100.375084666859
100.373088137441
100.371164256082
100.369504938253
100.368229468828
100.367317204651
100.3667617171
100.366552707984
100.366660161112
100.367104045654
100.367943138031
100.369218501152
100.370851945071
100.372624724707
100.373822948028
100.374048475488
100.373900570475
100.373954881795
100.374013012552
100.374148694615
100.374379936724
100.374370852331
100.37448684208
100.374529622728
100.374773646192
100.374929140577
100.375117510052
100.375317828904
100.375333051253
100.375449180251
100.375320651553
100.375276111662
100.375197068466
100.375117918607
100.375030933884
100.37494372268
100.374814163739
100.374730451556
100.374592690637
100.37446249167
100.374315407646
100.374152912235
100.373942655174
100.373913870517
100.373865059957
100.37414347681
100.374289388313
100.374441957529
100.374570921237
100.374716813113
100.374813033438
100.374924081895
100.375021248865
100.375112980566
100.375190473345
100.375283891526
100.375398374225
100.375182322484
100.375048368714
100.374798956187
100.374657488355
100.374417969706
100.37441563082
100.3743022513
100.374312693362
100.374061057183
100.373945599119
100.373762046442
100.373844026168
100.37397787786
100.374229591702
100.374234884073
100.374337439332
100.374328012515
100.374562355557
100.374713624141
100.374981085207
100.375101298653
100.375025855143
100.374904234682
100.374605198029
100.374454452045
100.374246792865
100.37425723758
100.374161995037
100.374120718827
100.373896259755
100.373783740459
100.373592996584
100.373674119853
100.373814227571
100.374011485965
100.374074467129
100.374165006913
100.374168046026
100.374360219833
100.374488070243
100.37479877953
100.374953022819
100.37485799455
100.374696892542
100.374371406316
100.374269069434
100.374088454833
100.374047542686
100.373982817722
100.373914897944
100.37373348343
100.373628180665
100.373464071649
100.373513945887
100.373647828468
100.37380895862
100.373866864864
100.373862569828
100.374102163272
100.374134295006
100.374285693205
100.374592849572
100.374764676417
100.374669851981
100.374481083608
100.374149923294
100.373977258422
100.373922455259
100.373752182704
100.373770108284
100.373709629861
100.373569843738
100.373485085437
100.37337973287
100.373358849211
100.373484689498
100.373605168633
100.373655556036
100.37365863589
100.373796130083
100.373847624541
100.373994151859
100.374339826452
100.374548834802
100.374393256325
100.374189210649
100.373828915351
100.373722818972
100.373723124179
100.373613985409
100.373578364952
100.373535828937
100.373508865334
100.373410107242
100.373350593946
100.373288335668
100.373206151983
100.373327998315
100.37341921134
100.37344813829
100.373499922782
100.373525364016
100.373644322616
100.373750715366
100.374074358247
100.37426223442
100.374121551805
100.373934202688
100.373614360787
100.373507174055
100.373421966212
100.37340153392
100.373352787354
100.373339460955
100.373254573718
100.373207998623
100.373136897095
100.373069422939
100.37317375987
100.373257800628
100.373252978543
100.373311680454
100.373339525818
100.373406109873
100.373469069839
100.373787201771
100.373978215157
100.37374784289
100.373612268459
100.373335954043
100.373321565871
100.373235731068
100.373207805754
100.373167186017
100.37317911966
100.373103796355
100.373076184308
100.372982682054
100.372944740144
100.373019148275
100.37306925778
100.373071232321
100.373119079015
100.373139446314
100.373205628519
100.373189027607
100.373465256116
100.373599005838
100.373629272093
100.373497245771
100.373398647944
100.373390030545
100.373210352101
100.373121139048
100.373104978286
100.372984951408
100.37304444959
100.37300800387
100.372965464745
100.372963335842
100.3729312482
100.372859645734
100.372752193585
100.372710838355
100.37267396448
100.37271393677
100.372813199334
100.372825188656
100.372861876047
100.372871333908
100.372888931657
100.372925750892
100.372953784245
100.372903603419
100.373067732954
100.373145593087
100.373369052174
100.373254805317
100.373271599795
100.373211211515
100.373016720805
100.3728485928
100.372848219648
100.372782348821
100.373041863552
100.372972993596
100.372925282422
100.372817051063
100.372834576617
100.372809773532
100.372783399671
100.372747881752
100.372782078276
100.372749904148
100.372747076347
100.372639581017
100.372420701907
100.372619988307
100.372734330669
100.372701027716
100.37273445619
100.372719243258
100.372710977258
100.372724569659
100.372773718551
100.372760027293
100.37285696846
100.372827848488
100.372660066693
100.37267949566
100.37258559514
100.372596684357
100.372503131515
100.372579869376
100.372743162051
100.372638284188
100.372680761576
100.372682879587
100.372684685178
100.372677321272
100.372689751768
100.372660860946
100.372678779994
100.37256627765
100.372351624155
100.37257734566
100.372671866805
100.372638581689
100.372642840926
100.3726366515
100.372637552881
100.37262971365
100.372586075651
100.37254750011
100.372618724078
100.372588992445
100.372607936803
100.372613922594
100.372810223287
100.372786459947
100.3728766328
100.372958607405
100.373045989353
100.373107903723
100.37317034746
100.373226307568
100.373290651395
100.373365332696
100.373463414216
100.373568613389
100.373659395103
100.373751102933
100.373858713464
100.373949252215
100.374044147978
100.374144331263
100.374251186923
100.37434455725
100.374578676968
100.37467042603
100.374928587862
100.374995420244
100.375217052433
100.375390195392
100.375373854702
100.375543154319
100.375467804036
100.375374978915
100.375365524575
100.375130275035
100.375001420409
100.374937690205
100.374795259563
100.374687588518
100.374580751109
100.374473554659
100.374339867629
100.3742330714
100.374125809656
100.374009638685
100.373850117737
100.373744664464
100.373621554368
100.373730426165
100.37370723948
100.373970343972
100.374132334845
100.374271234652
100.374359482631
100.374474634516
100.37461771177
100.374719485119
100.374807628226
100.374919052592
100.375041109939
100.375126488067
100.375194882063
100.375350670103
100.375484507012
100.375518330404
100.375398646556
100.375195645203
100.374863113986
100.374446390566
100.374569569224
100.37466589368
100.37499149295
100.375290451395
100.375461108196
100.375579097117
100.375532083752
100.375432646253
100.375270756024
100.375007284943
100.37464758467
100.374557549169
100.374471574375
100.374266209634
100.374116712562
100.373779333526
100.373587669271
100.373442143992
100.373284463256
100.373153692457
100.372977925186
100.372851495181
100.372717378081
100.372580130704
100.372426048804
100.372644671618
100.372940933444
100.373132393201
100.37322031439
100.373350688552
100.373488863809
100.37364852083
100.373750827672
100.373904461889
100.374031532517
100.374216193854
100.374572774129
100.37459674671
100.374782757241
100.374929811951
100.375234456433
100.375045483166
100.374965062902
100.375128071082
100.37493904724
100.374703782134
100.37417514392
100.374049182865
100.374238559738
100.374443882993
100.374443678897
100.374496027925
100.37463113511
100.374716842829
100.374819091432
100.375052459255
100.375342760607
100.375509251023
100.37561799315
100.3755909059
100.375477401103
100.375246509926
100.375002089363
100.374903318725
100.374681214911
100.374366661926
100.373948140465
100.373861949792
100.37368898967
100.373438633631
100.373228129934
100.373069049554
100.37289570899
100.372678628326
100.372475654521
100.372279578226
100.372151200438
100.371955043025
100.371780037828
100.371551756897
100.371382345422
100.371245677125
100.371161136334
100.370955335868
100.370779755931
100.370919024256
100.37133620087
100.371554269973
100.371669640138
100.371666627498
100.371788361293
100.371929338906
100.372124160828
100.372273716607
100.372464199122
100.372598514799
100.372776728091
100.372944252857
100.373184036795
100.373450695283
100.373608417262
100.373965574563
100.374000730045
100.374190352211
100.373986814293
100.374257430068
100.374520602493
100.374544983751
100.374534561658
100.374183391079
100.374224614573
100.374257936966
100.374259401555
100.374444040167
100.374619631389
100.37460524949
100.374771970381
100.37476694237
100.374908249208
100.375113993595
100.375409775464
100.375560102644
100.375677162129
100.375610772179
100.375610965637
100.375570837616
100.375383798253
100.375098386561
100.374764254694
100.374443591305
100.374047511305
100.373581290902
100.373390334687
100.373301542792
100.373092346069
100.372977763153
100.372830005268
100.372671765731
100.372517415898
100.372388975646
100.372137223323
100.372074704029
100.371864819654
100.371661927026
100.37150014377
100.371230831677
100.370986131625
100.370748870357
100.370586244753
100.370382772967
100.370598792466
100.370887444133
100.371138729739
100.371371931971
100.37161723063
100.371730173173
100.371916757122
100.372125264087
100.372333143838
100.372436153981
100.372622464412
100.37281753213
100.373046357177
100.373188352858
100.373441454071
100.3734263404
100.373189264006
100.373430259926
100.373573399377
100.373818360467
100.373719297786
100.373826732643
100.374936048308
100.374760398153
100.374641021004
100.374244067692
100.374180489826
100.374438534104
100.374465336474
100.374697416525
100.374669843547
100.374794134985
100.37481242854
100.375129570194
100.375319007739
100.375591236116
100.375748688303
100.37567279824
100.375727253942
100.375661706602
100.375606000287
100.375398693367
100.37516415886
100.374757005572
100.374492340247
100.374296763747
100.374075540111
100.373814382562
100.373518386364
100.373184255362
100.373175894635
100.373095479393
100.372950431898
100.372987959033
100.372800196258
100.372659692444
100.372564949205
100.372423609927
100.37255848162
100.372340843422
100.372126318978
100.371972350618
100.371783717332
100.371574355413
100.371288414551
100.371019172474
100.370756547765
100.370470515095
100.370133185202
100.369769705884
100.369416314581
100.368949320777
100.369225278169
100.369665810694
100.370056173434
100.37027980347
100.370512241554
100.370773846065
100.37103562921
100.371323680396
100.371501699375
100.371690438407
100.371901806053
100.372212564058
100.372404123288
100.37237207399
100.372411721124
100.372559708125
100.372709235857
100.372978629579
100.373068889202
100.373053456794
100.372914882674
100.372875108013
100.372916534253
100.372911442979
100.372889000375
100.374053204788
100.371258649766
100.370065970632
100.369457300976
100.368586047165
100.367871604374
100.367351748682
100.366906573682
100.366661067146
100.366349112631
100.365915852722
100.365292576668
100.362624739715
100.360670506829
100.364976256826
100.365500692924
100.365964220802
100.366923517418
100.368245738123
100.36906586664
100.36973440481
100.370247236027
100.37067867449
100.371069939281
100.371287650019
100.371625123035
100.37228381234
100.370976790716
100.372888191963
100.370155055238
100.373905640079
100.373772439009
100.374111344401
100.374196225456
100.37434460136
100.374410814858
100.374632091172
100.374590209835
100.373988377363
100.373054262175
100.371935538019
100.370375205422
100.368691696909
100.367889503045
100.37055861219
100.372006102932
100.369178801288
100.365298732215
100.362601685771
100.361623266916
100.350240678598
100.354268250812
100.353298257994
100.357264207657
100.35865589341
100.360688107212
100.363494457139
100.362384738975
100.359196460558
100.359490727377
100.357919505364
100.360103718903
100.361817840259
100.362311920195
100.363001509443
100.364170983584
100.364142878588
100.367189817607
100.368577389525
100.369980346666
100.371558007514
100.37247859685
100.372598544956
100.372675807745
100.372601700025
100.373083336746
100.37328109933
100.373446331499
100.373574942711
100.373730741579
100.373926176311
100.374144105335
100.374348674188
100.374220414664
100.373961224113
100.374218584817
100.374180263471
100.374322872723
100.374483094418
100.37429718748
100.374391359732
100.374599556658
100.374704399854
100.374665353348
100.374732603971
100.375009684132
100.375207360939
100.375468400937
100.375610336274
100.375731956601
100.375753558406
100.375563009618
100.375336462093
100.375036573368
100.37511288676
100.375238507977
100.375517054659
100.375653444185
100.375709340082
100.375709359947
100.375606919158
100.375440642655
100.375392394259
100.375342553928
100.375160639007
100.374911917303
100.374553382447
100.374112005534
100.373903167875
100.373729992812
100.373602215079
100.373401324428
100.373296257417
100.373109400433
100.37328189728
100.373182521408
100.373332606861
100.373271744464
100.373165061115
100.373001839058
100.373161843641
100.373016462603
100.372926636991
100.372786802175
100.372637718479
100.372460507365
100.372256161184
100.372362470634
100.372126370272
100.371913468946
100.371695128133
100.371452186214
100.371172517892
100.370891979043
100.370395096535
100.37064564311
100.370992447601
100.371262547501
100.371504452002
100.371743410467
100.371969579723
100.372204883238
100.37204146496
100.372088824828
100.372287365911
100.372477241038
100.372702832257
100.372823347479
100.372996729699
100.372826137733
100.372887167483
100.37307378507
100.373151377787
100.373106256896
100.373039577888
100.372869463439
100.372666617674
100.372344777476
100.372315771917
100.372352853268
100.372749040951
100.373013654437
100.373432185908
100.373779275835
100.37414425046
100.374444580065
100.374613880539
100.374404236755
100.374470157005
100.374594870752
100.37481389591
100.374771377395
100.37490792369
100.374976194835
100.375204627898
100.375552866034
100.375425095779
100.375546949288
100.375620834897
100.375528856954
100.375540652368
100.375484679428
100.375270204004
100.375024784863
100.374901986474
100.374623651198
100.374261647324
100.374002655379
100.373613664473
100.373509875798
100.373386541314
100.373370074925
100.373314898242
100.37338123803
100.373292595827
100.373524868784
100.373394141449
100.373580924461
100.373480349289
100.373457924134
100.373279914419
100.37337576014
100.373250160533
100.373161274031
100.373079107368
100.372982634642
100.372780005358
100.372760623148
100.372587911483
100.37240039317
100.372185328755
100.371972444941
100.371750601568
100.371479177779
100.371185637532
100.370880969244
100.370547021876
100.370145045599
100.3697710777
100.37013060362
100.370523560138
100.370726221747
100.371045145786
100.371344205909
100.371609012447
100.371838874478
100.372074484606
100.372303478971
100.372568610619
100.372758152006
100.372637067656
100.372740469474
100.372872008808
100.372954790469
100.37308214076
100.373283267109
100.37316840663
100.373178028472
100.373250507155
100.373425391801
100.373293699441
100.37326042309
100.373008374288
100.372560564492