/*--------------------------------*- C++ -*----------------------------------*\
| =========                 |                                                 |
| \\      /  F ield         | OpenFOAM: The Open Source CFD Toolbox           |
|  \\    /   O peration     | Version:  v1612+                                |
|   \\  /    A nd           | Web:      www.OpenFOAM.com                      |
|    \\/     M anipulation  |                                                 |
\*---------------------------------------------------------------------------*/
FoamFile
{
    version     2.0;
    format      ascii;
    class       volScalarField;
    location    "1.8";
    object      p;
}
// * * * * * * * * * * * * * * * * * * * * * * * * * * * * * * * * * * * * * //

dimensions      [0 2 -2 0 0 0 0];

internalField   nonuniform List<scalar> 
79506
(
100.120972553428
100.12305798704
100.119290599256
100.123833964415
100.130789324976
100.131029110364
100.12908863016
100.12969558687
100.130084988985
100.130258497995
100.130653189848
100.130274979341
100.131955098862
100.131394196076
100.133522513723
100.13354818842
100.131486510312
100.128606503672
100.125394982802
100.125013952361
100.125115604138
100.12687735451
100.124464170552
100.125659767974
100.127601607254
100.132436749361
100.127038823738
100.126026508214
100.125271047508
100.124916599449
100.125009830875
100.125074562445
100.125903040127
100.126861878504
100.132346941306
100.127361591316
100.125377699477
100.124120756033
100.126501601437
100.124708662946
100.12464551887
100.125033423938
100.128257650754
100.131179599059
100.133131262145
100.133005703971
100.126357910508
100.125165180856
100.121777447144
100.122285126217
100.122813685755
100.122653894406
100.122746304556
100.1227540132
100.120512201776
100.123740135299
100.127431547793
100.125948286037
100.122563944556
100.121621556613
100.120596622096
100.121442650992
100.121526047874
100.120863473448
100.121743909905
100.122751259542
100.126254350251
100.127727622479
100.124006386826
100.120792087181
100.123090521345
100.123112895268
100.122962420894
100.12308597908
100.122454349684
100.121950849533
100.125477165807
100.126726325318
100.124312248935
100.127629801527
100.130805281111
100.132602537813
100.130616554397
100.130056158543
100.131125939769
100.12927435821
100.126792576951
100.122601986645
100.128053752242
100.116469277685
100.105254078347
100.111433820958
100.113048902867
100.122309410367
100.116466113011
100.117612521223
100.120334345992
100.119652335949
100.119154775535
100.119182577925
100.119149862787
100.123729789263
100.124533007804
100.120000710183
100.120362558671
100.117829759137
100.116644290687
100.117538846381
100.117550970844
100.11667595664
100.117940473755
100.120575145411
100.120280195435
100.124816018662
100.124026047267
100.119434419183
100.119541458118
100.119528521217
100.119970854751
100.120631216894
100.117803061282
100.116585675864
100.122757341402
100.12323522296
100.119789226292
100.123637189862
100.130157507626
100.13537375147
100.128819978936
100.128286043388
100.132835640565
100.148300081694
100.117186285983
100.117696942047
100.102666797565
100.076014989307
100.076870812724
100.072560281866
100.073268582651
100.079463002327
100.109692428667
100.119957287815
100.117060970188
100.116821263319
100.12097076551
100.127186290739
100.110465984315
100.111024085001
100.112442625271
100.121782593816
100.116835851709
100.11685999044
100.121901165771
100.112450269231
100.111156102072
100.110656765336
100.109244415656
100.109970783062
100.113499822015
100.111310162501
100.071393125635
100.073448104228
100.074743739965
100.074494367942
100.07341930884
100.073470804343
100.075370381096
100.075798748239
100.079910348521
100.109044498428
100.104191575994
100.0878756408
100.082096611237
100.082024640761
100.079339366523
100.080135517241
100.074636362115
100.074742821322
100.076886485706
100.08061856098
100.080527733991
100.076720068667
100.074582930423
100.079937982452
100.079154416107
100.072783325492
100.073390922325
100.079911199141
100.080368256384
100.079507988224
100.079203047022
100.080075944476
100.079943971023
100.079211520148
100.080444024396
100.080528646114
100.081018155275
100.081136035569
100.080438281375
100.075642064354
100.076447947504
100.076417344257
100.075602980511
100.074599288363
100.075549127297
100.075097219471
100.079026125765
100.080305245867
100.080935858059
100.081222783326
100.0805292915
100.080475427576
100.081191725808
100.081105397117
100.078971191962
100.078767466296
100.078857470988
100.078943566112
100.079015964039
100.078869972435
100.080697108385
100.07978409935
100.079773759903
100.080365393053
100.079917343358
100.079117718397
100.080332816473
100.078651193833
100.078559135757
100.078717608728
100.078818837409
100.078631576356
100.078681819142
100.078986947396
100.076553953082
100.076568143074
100.076515368307
100.076590564837
100.076573415451
100.076619574946
100.076548841346
100.076509776501
100.078826474609
100.080660449006
100.080989804433
100.080831431795
100.078762169279
100.076385831744
100.076369877782
100.076268096569
100.076314418961
100.076357538213
100.076336899005
100.076404503869
100.074515917821
100.074635672182
100.074653528388
100.074600706161
100.074661312676
100.074644494604
100.074665246856
100.074593346993
100.074556310524
100.074555421166
100.076511246703
100.078886818722
100.079293951487
100.076690950567
100.07468414676
100.074458119103
100.074436161738
100.074373427927
100.074437170837
100.074476779881
100.074447830799
100.072741999123
100.07281679913
100.072921654494
100.072931431392
100.072876669291
100.072935376294
100.072919152118
100.072925473139
100.072854787688
100.072819121625
100.072816372802
100.072737667331
100.072720266127
100.07268433365
100.072739370807
100.072763211761
100.071015989334
100.070992464361
100.071067791897
100.071170643322
100.071158656909
100.07111571898
100.071187325672
100.071169901665
100.071172920609
100.071114662881
100.071081774778
100.071072663986
100.071002447868
100.070990852405
100.070969414071
100.071007291565
100.069234484602
100.069308430294
100.069168814685
100.069164250825
100.069351261767
100.069331283285
100.06929519862
100.06938416083
100.069371455468
100.069380451029
100.069335552081
100.069306414867
100.069289490578
100.069224298495
100.069212025696
100.069197851377
100.067390307453
100.067386048215
100.067495491997
100.067196577451
100.067084412395
100.067365328059
100.067437194744
100.067459912387
100.067570461391
100.067566369663
100.067582492385
100.067550797953
100.067524444056
100.067500245033
100.067439901528
100.067415691172
100.065604339736
100.065545094982
100.065475939756
100.065456000525
100.065660481868
100.065587637848
100.065384486145
100.065569559791
100.065647389859
100.065772553389
100.065788735069
100.065813818392
100.065791737662
100.065760888973
100.065722602846
100.065651593871
100.063849083593
100.06376107474
100.063652969357
100.063557378879
100.063341963413
100.063807705718
100.06390578125
100.063557885253
100.063786065797
100.063875432881
100.064017412479
100.064058476416
100.064096677084
100.064079714398
100.064027546718
100.063954040286
100.062183318405
100.062007715398
100.061852811645
100.061665250375
100.061579747511
100.061315565651
100.061289784825
100.061529422551
100.061787463441
100.061998825843
100.062134270869
100.062323913581
100.062402514148
100.062460590852
100.062436941927
100.062334951453
100.060684634886
100.060372017686
100.06006904968
100.059805558021
100.059488229059
100.059370521988
100.05922026293
100.059011398631
100.059266001117
100.059779993834
100.060081518267
100.060404822021
100.060701370143
100.060835162492
100.060925799605
100.060880787867
100.059403240447
100.059033477056
100.058409005139
100.05791455542
100.057439467308
100.056921366724
100.056681238465
100.056570507053
100.056344945486
100.056665813074
100.057384406038
100.057953933797
100.058636792241
100.059111697324
100.059348306768
100.05947870778
100.057979471319
100.057859833726
100.057159614487
100.056072017985
100.055259072873
100.054394568546
100.053560964361
100.053141606931
100.052958983713
100.052461471919
100.053060909133
100.05458055278
100.055460155385
100.056598126109
100.057418566323
100.057871796013
100.056048724005
100.056007851568
100.05602720393
100.054694051957
100.052630465082
100.051421407623
100.050093362802
100.048725832555
100.047678287105
100.047481023095
100.046571647789
100.047599035778
100.050421356604
100.051776192553
100.053844704514
100.055364330588
100.051687078643
100.052809372765
100.051937337252
100.052789998409
100.050446059204
100.046042543291
100.044255714277
100.042578088087
100.040309530276
100.037877324615
100.038213973528
100.036879691772
100.038254172007
100.042894538075
100.045089225816
100.04893314289
100.041735837754
100.046140982184
100.047626547986
100.044727465879
100.047488489432
100.043512227704
100.034087299518
100.032457686218
100.03069308851
100.027578647396
100.02257626001
100.023863922701
100.022240698341
100.024443562105
100.031471905786
100.03413090209
100.059807874571
100.065337775939
100.071239736752
100.081014870916
100.071701532088
100.071448879485
100.064502475979
100.05426020555
100.055964929032
100.046855999779
100.042190099687
100.042093312202
100.032202219576
100.071819087942
100.095889167635
100.099277878583
100.081486681567
100.038873873211
100.035136084281
100.138739263626
100.224809824928
100.162240370004
100.166600504382
100.164552593767
100.15599533974
100.151066022306
100.199739994661
100.240552842721
100.147630250485
100.159183941686
100.223586605748
100.177043323691
100.173145878293
100.157037643066
100.146696648673
100.147810606083
100.139900008763
100.179487225855
100.119973492686
100.114072250592
100.167796752452
100.126704922589
100.139658463058
100.153295046804
100.244694747736
100.25985955522
100.264042196168
100.255803157611
100.269523954791
100.279631402076
100.295714935455
100.333122991524
100.347843910644
100.249710439802
100.285098744513
100.378300086411
100.326807547623
100.317426289929
100.301585389114
100.320005930284
100.262228852388
100.248802529309
100.296441627003
100.268156817106
100.271563612937
100.276382327635
100.297711121126
100.290344911863
100.26032029861
100.252524696262
100.250713671316
100.332397818773
100.372415064175
100.344106903828
100.34765757468
100.381642832545
100.37373786133
100.348124341973
100.437675510551
100.463556778883
100.434437716017
100.459388956783
100.466522295434
100.425161755506
100.378426289243
100.421895312683
100.369936051253
100.458222476731
100.481682556987
100.466187663627
100.475783920671
100.494962239086
100.466666237757
100.414120656101
100.434211457906
100.469177059378
100.424349785655
100.442549367699
100.445719924892
100.405533189799
100.438021961346
100.414296116767
100.345217464987
100.334854651966
100.399971840593
100.411057782557
100.369700961231
100.401769148049
100.398364396684
100.368965289804
100.406685412405
100.378478047157
100.366647988969
100.386781848816
100.352215058775
100.34949284359
100.407196915145
100.448550053727
100.428340524993
100.441456842027
100.466666433876
100.465433366057
100.445406008895
100.41734053839
100.416130074167
100.475712504226
100.496083560071
100.490303011594
100.488493772545
100.48959244254
100.487004596845
100.472917825697
100.499509569475
100.50080506216
100.496997621531
100.498146378119
100.497147284337
100.493138314682
100.485786016336
100.489117456807
100.492931544356
100.502378115252
100.492035041353
100.504675166089
100.5022191912
100.500901202045
100.499840939165
100.500828669079
100.501201647039
100.500292609599
100.498717356978
100.494733761634
100.485191394128
100.490001095498
100.497870496953
100.480415533757
100.481025196138
100.47523732738
100.477117010157
100.458423698377
100.446999065675
100.465203576159
100.456132664753
100.453323912288
100.452577631762
100.462721098329
100.467565250636
100.441772409911
100.432069714849
100.453631270673
100.439148791157
100.451574236635
100.482955983156
100.482329312847
100.485858677479
100.491687974758
100.501578972091
100.501648383093
100.509089598949
100.505011002127
100.500229783487
100.494898868237
100.498953545962
100.507378055032
100.508304310029
100.508765584279
100.509668722057
100.507289483909
100.50408310469
100.501989363058
100.50666345066
100.507567783431
100.507666867008
100.506846284571
100.503664115215
100.503644424014
100.501743862589
100.501726141839
100.500494161064
100.500040509082
100.4969962032
100.500366791011
100.497246785862
100.502161712238
100.501291874245
100.500382648458
100.500762161835
100.500877091714
100.500811350354
100.50027563972
100.499546269448
100.500729791288
100.500284647822
100.498935757342
100.49973825168
100.50046995468
100.498870242164
100.498951693305
100.499517911106
100.499326938683
100.496470117618
100.496111267744
100.497212071268
100.495716822815
100.494518865455
100.498599730465
100.490506077958
100.489465183782
100.490092827631
100.491401381329
100.489746385323
100.479994197001
100.477324101256
100.488998085068
100.490167796176
100.479638081398
100.489375287031
100.488413280052
100.484939979515
100.496201218091
100.491517049818
100.495228774981
100.504805918125
100.50086092153
100.49887878152
100.496637169662
100.487797572142
100.495399326773
100.500453734329
100.500041721113
100.501580122489
100.507382767428
100.507637383097
100.508936437466
100.510093460977
100.509262725105
100.509732082526
100.509782976732
100.508356525752
100.507563772106
100.508320684675
100.509086777986
100.510576802779
100.510428700315
100.511580026152
100.510345458357
100.510528780591
100.506061177995
100.507023581991
100.507953589894
100.510990069736
100.511580355461
100.51210459419
100.510512387358
100.506499595595
100.506021360367
100.503193859496
100.501134159525
100.501411052585
100.501270759238
100.503482048159
100.506140216477
100.503291421915
100.502719497713
100.501145644793
100.499675338972
100.498117159296
100.497261303347
100.497060838912
100.496939726904
100.497127706992
100.503075574067
100.517148776907
100.549049375742
100.557758475544
100.499742751842
100.459285448217
100.423547289685
100.38230911118
100.358755608706
100.374821015085
100.372259818136
100.370672656793
100.371098622509
100.371889240882
100.372642748715
100.37360032047
100.374890247268
100.376391543514
100.377899825425
100.379243448171
100.380280579755
100.380917660598
100.379616093302
100.378273526869
100.376922312811
100.375556692616
100.374199637481
100.372916446864
100.371778778656
100.370802463973
100.369968224827
100.36925011502
100.368601593982
100.367993003185
100.367434110504
100.366994314196
100.366806210883
100.366972652767
100.367537363339
100.368497864594
100.369702589126
100.370913228624
100.371854264727
100.372266943687
100.372265582197
100.372334255641
100.37233040689
100.372346148031
100.372354887563
100.372376912705
100.372341858377
100.372374146744
100.372351034388
100.372429556791
100.372538861295
100.372510537132
100.372451480737
100.372321164064
100.372279638003
100.372439575291
100.372253816063
100.372274242154
100.372285936691
100.37217686029
100.372079428107
100.372216382537
100.3721034064
100.372217939754
100.372243369598
100.372291127902
100.372227008991
100.372268681792
100.372272565926
100.372260620041
100.372257492636
100.372222580384
100.372247487432
100.372178501988
100.372087053017
100.371983559074
100.371783443035
100.371996672007
100.372101628602
100.372143202657
100.372193692052
100.372182379371
100.372177637824
100.372213480232
100.372245475811
100.372267539387
100.372305909401
100.372352704843
100.372402453899
100.372427371918
100.372441774053
100.372444195195
100.372378610682
100.372587705337
100.372619862566
100.372649449334
100.372676034654
100.372653076776
100.37257205636
100.372476958275
100.372379522032
100.372061471576
100.37164315
100.371456052187
100.371586004129
100.371769780715
100.372129614448
100.371859448011
100.371652261706
100.371472793926
100.371654191844
100.371665995411
100.371971353873
100.372047356389
100.371926730568
100.37200433047
100.3720260221
100.372173451893
100.372160648563
100.372214486132
100.372283508785
100.372224046195
100.372207893044
100.372259789726
100.372307499874
100.372402452448
100.372409456285
100.372483318268
100.372500046028
100.37250173239
100.372531777819
100.372541136353
100.372719556905
100.372773708049
100.372843108529
100.372918144859
100.372875917816
100.373013097453
100.372650383818
100.372578293445
100.372349474901
100.372388611192
100.372616600648
100.3726284052
100.372816978969
100.37293644282
100.373087404812
100.373118800492
100.373122902248
100.372973944959
100.372775557151
100.372648682248
100.37271212381
100.372770547854
100.372905264528
100.372796349605
100.372727562653
100.372539015317
100.372264675028
100.372178600902
100.372432061325
100.372446342588
100.372550632996
100.372567602182
100.372641893728
100.372693036363
100.372737263108
100.37298557236
100.373132771765
100.373265802084
100.373304869849
100.373314726575
100.373097274777
100.372878369568
100.372468715463
100.371991910614
100.371567654963
100.371744494301
100.371903120882
100.371881457264
100.371717787855
100.371044834689
100.370445903507
100.369911928291
100.370102847537
100.370396352725
100.370257463751
100.370116334801
100.370343106169
100.370646643194
100.370827524028
100.370912174997
100.370662272243
100.370913232567
100.370611718128
100.37121071652
100.372173499104
100.372458888746
100.372342239179
100.37237621949
100.372395160306
100.37245087402
100.372472449927
100.372529607963
100.372534178149
100.372595107543
100.37262379282
100.372684745787
100.372686360098
100.372761018655
100.372856773504
100.373123581944
100.373280047187
100.373397810236
100.373399902087
100.373363261436
100.373207395238
100.372964964432
100.372586468054
100.372106210388
100.371578696846
100.370853836112
100.37046502178
100.370334483034
100.3701625856
100.370055581764
100.369300307204
100.368959520125
100.368800525806
100.368640153354
100.368588270437
100.369036992126
100.369166162247
100.368716722572
100.369032797319
100.369500085772
100.369564093323
100.369694396739
100.370748325319
100.371364453075
100.372145498682
100.372526467266
100.372490473119
100.372491433855
100.372507281622
100.3725584427
100.372576919248
100.37263175484
100.372665143598
100.372725518109
100.372722413702
100.372706692433
100.372819334272
100.372979715518
100.373247618946
100.373420559225
100.373580719747
100.373527820487
100.373561321544
100.37356280194
100.373690205032
100.37352644018
100.37334047586
100.373026684487
100.372722490583
100.372815011385
100.373133398154
100.373378537695
100.373560439858
100.373741592381
100.373715273615
100.373634261151
100.373378971158
100.373113679365
100.373062685745
100.372694645262
100.372230592818
100.371690659071
100.370962905299
100.370606208298
100.370208279591
100.369952651073
100.369872009655
100.369622589249
100.369359439955
100.369103210277
100.369414528295
100.369753493075
100.370037429133
100.369793841873
100.369439051867
100.369218786348
100.368770460854
100.368742915592
100.368888198595
100.368639959167
100.368124786694
100.368380686444
100.36851774695
100.368087965187
100.368102883395
100.367592505888
100.367180354638
100.366828930955
100.366634483979
100.367102794602
100.367481994461
100.367802510589
100.36738920227
100.367554475762
100.367760818812
100.367645605022
100.36827215876
100.366793168101
100.365372214717
100.36444469175
100.36449444809
100.365076546222
100.365930876007
100.367775762054
100.365827906772
100.36492953099
100.364132439176
100.360740519808
100.358104143548
100.362403414541
100.361602387468
100.361439063395
100.359104015714
100.360492271981
100.357924400223
100.360007146298
100.361427947427
100.361794164889
100.362885444322
100.364139215733
100.36527508036
100.36639823597
100.367208153804
100.366730689011
100.36849485525
100.366162899044
100.372434254877
100.37139608467
100.37006218738
100.368416493437
100.366829239951
100.365790114202
100.367895634041
100.369211421071
100.365110128904
100.362681323076
100.361697433325
100.35216587748
100.355390029503
100.353100110676
100.35645227023
100.3581737402
100.36778078337
100.36954020844
100.371308561582
100.371564225517
100.371886287175
100.371930541188
100.371961453065
100.371982254645
100.371977464539
100.372010908556
100.372039344862
100.37199489035
100.372079032539
100.372009767402
100.371891744396
100.371796626006
100.371766685237
100.371927429197
100.37182091747
100.37197788318
100.372014050249
100.371918839454
100.371982819815
100.37199718562
100.371976163592
100.371964445182
100.37194988553
100.37190479615
100.371819724806
100.371799514369
100.37119707187
100.370209906555
100.371424662412
100.371849076982
100.371821761029
100.371897857411
100.371897646998
100.371920525457
100.371912206406
100.371932059916
100.371936218414
100.37188785412
100.371930370191
100.371798207686
100.37182437968
100.371947235057
100.371989327601
100.371943670425
100.371838560876
100.371810643637
100.371366237923
100.371184326339
100.371502784042
100.371420714639
100.371749068666
100.371612255018
100.371773672384
100.371876705696
100.371866436425
100.371904487367
100.371934175299
100.371977953821
100.371946619774
100.371874737971
100.371922874906
100.371900993384
100.371876318499
100.371812342112
100.371822967378
100.37148202344
100.370315399152
100.371698900879
100.371828321673
100.371837206704
100.371886373126
100.371899387993
100.371912731215
100.371946615896
100.371910324575
100.371910910265
100.371877870837
100.371888435448
100.371755040163
100.371528864764
100.371141770498
100.370649071764
100.37126533696
100.37119486144
100.371701743655
100.371487700308
100.371780387986
100.371887378818
100.371904436006
100.371902112777
100.371979405578
100.371922213086
100.371869842336
100.371880354099
100.371861728469
100.371841097682
100.371805844364
100.371776608853
100.371493581874
100.370131267753
100.368561368189
100.370590317034
100.371662199476
100.371790857713
100.37183333608
100.371871353195
100.371893223081
100.371870058229
100.371955978902
100.371985710532
100.371924320717
100.371898795546
100.371866258577
100.371744375031
100.371534651868
100.371852499039
100.371913132961
100.371938177329
100.371940194184
100.371875162293
100.371708195931
100.371528423786
100.370965387568
100.371690599346
100.371568081821
100.371869613275
100.371806104956
100.371939194342
100.371987406736
100.371980364085
100.371901275804
100.371997181566
100.371876105167
100.371920842291
100.371862038214
100.371859652967
100.371820544688
100.37175302184
100.370806921544
100.369066143639
100.371314001344
100.371902712234
100.371890021495
100.371892353008
100.371977437945
100.371861654114
100.372028988525
100.372065522915
100.37191637493
100.37198029793
100.371913944047
100.371924421388
100.371883842377
100.371645514094
100.370864927506
100.369298087584
100.368339240695
100.370291226857
100.371375557302
100.371819480628
100.371961476544
100.371954357311
100.372055713646
100.371922767728
100.372117562766
100.371964367232
100.372053954798
100.372006125508
100.371871244476
100.371708101983
100.371156027668
100.370604778544
100.371246488212
100.371761209441
100.371826110251
100.372070322505
100.372012154505
100.372108266213
100.372148226446
100.372106885952
100.372208765802
100.372000400151
100.372082299682
100.371975406989
100.372000642208
100.371950705362
100.371690853127
100.37069299382
100.369431177891
100.371511184281
100.37201645378
100.372069434474
100.372045976407
100.372180574117
100.371995677933
100.372271810397
100.372099202838
100.372225743053
100.372221333517
100.372117088606
100.371901019089
100.371401855531
100.371892396099
100.37199909758
100.372187053453
100.372184677199
100.372277214202
100.372290920135
100.372221452478
100.372318867488
100.372085005744
100.372163225104
100.372084798101
100.372103911215
100.372058880633
100.371945809625
100.371444329132
100.369969438726
100.369312574618
100.37129390279
100.371961061445
100.372083810661
100.372144856963
100.372156779093
100.372216059512
100.372106614553
100.372331577291
100.372167105243
100.372314968049
100.372308682071
100.372201311018
100.372019466502
100.37142465736
100.371942806787
100.372027367893
100.372206494322
100.372229787632
100.372348628672
100.372231505248
100.372353474259
100.372361584831
100.3723202857
100.372224443955
100.372191296004
100.372190144145
100.372251771685
100.372179534033
100.372181828576
100.372108329138
100.371908071259
100.371323523599
100.369924746544
100.369658502619
100.371303893224
100.371966317839
100.372147928479
100.372215886995
100.37223757884
100.372220380968
100.372268627718
100.372223546582
100.372395970614
100.3722989307
100.372374737712
100.372377285045
100.372288034961
100.372074334418
100.371575859366
100.371999196924
100.372271297674
100.372356234528
100.372360441915
100.3724115442
100.372401585193
100.372322373823
100.372157221942
100.371630921182
100.372033298635
100.372137622505
100.372249137283
100.372344942724
100.372419552071
100.372306841005
100.372399740453
100.372294895585
100.372357943724
100.372434699499
100.372242815783
100.372292160538
100.372344613871
100.372288243818
100.372295781181
100.372294364395
100.372263130559
100.371783234917
100.371315063204
100.372339245221
100.372378601353
100.372364169419
100.372352422067
100.372388880293
100.372340888428
100.372349544858
100.372409317093
100.372412061782
100.372407627411
100.372430542118
100.372367806612
100.372078852741
100.372243539531
100.372388009659
100.372378098478
100.372405259722
100.372417063738
100.372480677075
100.372364087599
100.372413080245
100.372402217895
100.372428006979
100.372449606414
100.372414715445
100.372565032664
100.371814923684
100.371958766665
100.372573545723
100.372504077429
100.372498048602
100.372493508603
100.372465292139
100.372462727884
100.372421424214
100.37249728499
100.372408962794
100.37243442643
100.37244661416
100.372337121911
100.372112791726
100.371681455775
100.372078676632
100.3722967625
100.372402532062
100.372393560568
100.372460166705
100.372445566408
100.372336920891
100.372204770149
100.371737678708
100.372118077045
100.372328139315
100.372434048768
100.372427044236
100.372445592709
100.372489076928
100.372525071634
100.372454842266
100.372489594468
100.372498339719
100.372521242739
100.372536031661
100.372581079143
100.372484004344
100.3727093772
100.372095904138
100.37268114673
100.372696085311
100.37265617669
100.372617095642
100.372603786332
100.372582073515
100.372551903231
100.372540044907
100.372581207889
100.372499869673
100.372504854083
100.37252538923
100.372441350704
100.372333312989
100.371879871186
100.372240234879
100.372411382545
100.372470003246
100.37248771945
100.372501732397
100.372480364004
100.372466029428
100.372511749535
100.372240414912
100.371873160839
100.37237924212
100.372580525975
100.3726010147
100.372617347443
100.372679313028
100.37261142062
100.372532019434
100.37255525158
100.372563401289
100.372594315919
100.372578921322
100.37253857392
100.372582577292
100.372608583492
100.372683999534
100.372644835942
100.372709433209
100.372590286744
100.372797914454
100.372285984323
100.372908972009
100.372754632162
100.372870378093
100.372789634202
100.37277651984
100.372787690979
100.372682661365
100.372641711067
100.372635915742
100.372645906282
100.372564916071
100.372644315997
100.372731273511
100.372811250097
100.372718959587
100.372680390142
100.37280559673
100.372947819401
100.3728902398
100.372954991304
100.372892338634
100.373059093506
100.373292873051
100.373307393833
100.373433787968
100.373213319962
100.372851682636
100.372800773724
100.372932413876
100.372789009083
100.372814768317
100.372731977538
100.372773476123
100.372886549164
100.372824787497
100.372912380002
100.372894263899
100.3730370798
100.372863834218
100.373080336343
100.373142807186
100.372019276777
100.372300819378
100.370879238504
100.371296130825
100.369933177221
100.370450790475
100.369110134581
100.368261111216
100.368507783653
100.367800634019
100.368256476512
100.367601072168
100.367270164048
100.367760360329
100.367460839322
100.367348867555
100.368369779691
100.368462711239
100.368674223662
100.370181461002
100.370376738241
100.371582668222
100.371908197827
100.37200743058
100.372037065302
100.372081311286
100.372076710394
100.372105088784
100.372116744021
100.372132527703
100.372078537097
100.372136343464
100.372028362899
100.372055774151
100.372124280177
100.372133070516
100.372099281339
100.372026870157
100.372108637566
100.372019715705
100.3720176577
100.371710925238
100.371582465264
100.371781984075
100.371590699314
100.371223783423
100.370853564622
100.370788265078
100.371082227359
100.37113078736
100.371642700012
100.37151462845
100.371213729118
100.37070475783
100.370072273189
100.36940506055
100.3699103923
100.37014875016
100.370047243771
100.370643964541
100.370642759582
100.370685644065
100.370440374719
100.370797152878
100.37129842646
100.371457636073
100.371801214215
100.371834903999
100.371974212362
100.371977691637
100.371907866009
100.371919893394
100.371943592529
100.371965599061
100.371988462731
100.371987931483
100.37200276277
100.3720260829
100.372021440671
100.372058425905
100.372068863294
100.372111075866
100.372162296519
100.372152433273
100.372174246019
100.372193554426
100.372173709742
100.372244146738
100.37220171128
100.372120725437
100.372222986774
100.372114334051
100.372149686192
100.372152317538
100.37216856651
100.372146523812
100.372130137725
100.372402636427
100.372415602772
100.372356394138
100.372405381906
100.37246042516
100.372522004051
100.372581564931
100.372686415724
100.372749391992
100.372783298114
100.372820740491
100.372898854481
100.372947427161
100.373107767222
100.373334606697
100.373529644711
100.373716477487
100.373877621453
100.373844403933
100.373765163893
100.373533052185
100.373185474355
100.372914752389
100.373044519902
100.37266363074
100.372291237756
100.371792413046
100.37105909569
100.370735705687
100.370351468667
100.37012228267
100.370064975061
100.369884076217
100.370182091002
100.369929962585
100.369571551451
100.369219127991
100.369054416263
100.369589993882