/*--------------------------------*- C++ -*----------------------------------*\
| =========                 |                                                 |
| \\      /  F ield         | OpenFOAM: The Open Source CFD Toolbox           |
|  \\    /   O peration     | Version:  v1612+                                |
|   \\  /    A nd           | Web:      www.OpenFOAM.com                      |
|    \\/     M anipulation  |                                                 |
\*---------------------------------------------------------------------------*/
FoamFile
{
    version     2.0;
    format      ascii;
    class       volScalarField;
    location    "1.6";
    object      p;
}
// * * * * * * * * * * * * * * * * * * * * * * * * * * * * * * * * * * * * * //

dimensions      [0 2 -2 0 0 0 0];

internalField   nonuniform List<scalar> 
80212
(
100.338401824243
100.337789221988
100.33773915049
100.340496704496
100.344047717737
100.344023536346
100.344340208925
100.344261081252
100.344781733102
100.346292653222
100.345618960107
100.344655671654
100.344969298353
100.346088246853
100.346709734754
100.344931871233
100.344360619549
100.344346124493
100.344027391311
100.344042132046
100.344610439839
100.344838281636
100.345716879603
100.347471492918
100.345877568027
100.343809765372
100.342860520216
100.342681469387
100.343113917085
100.343481674469
100.346088582374
100.345876929358
100.34513138174
100.344747253741
100.34331469455
100.34361144874
100.344337683804
100.343555142926
100.34500595873
100.346975248792
100.34689638757
100.34492133197
100.343506239289
100.344321101017
100.343600852897
100.343299114433
100.344725502587
100.345111864223
100.345848142148
100.346083079343
100.343479755334
100.34311579195
100.342690988981
100.342871245222
100.343820540612
100.345887920906
100.347480296659
100.34572477154
100.344850713081
100.344623181548
100.341531489095
100.341847359725
100.341301044147
100.341542548421
100.341282122918
100.341186196773
100.340749747298
100.340485123956
100.340978703553
100.340926672758
100.341278737659
100.34119332945
100.340981023659
100.341505765903
100.340813604559
100.340362578605
100.340608443649
100.340593900591
100.340666880573
100.340396244109
100.340389737156
100.340659565958
100.34058464857
100.340604210826
100.340376785355
100.340849856507
100.341542271411
100.341012495807
100.341210225171
100.341283100811
100.340922184816
100.340971462116
100.340474269473
100.34074179259
100.341175726969
100.341267990131
100.341530558526
100.341289219802
100.34183215588
100.341517241529
100.340494418735
100.340585859987
100.341769521822
100.342189990402
100.34163311881
100.342270623141
100.341760146672
100.34151951418
100.341682154215
100.342065225229
100.342452312212
100.341692784009
100.342229629974
100.341798116153
100.340600427727
100.337831204772
100.339423246889
100.336981956268
100.337062866096
100.337202969272
100.339917375064
100.338238642972
100.336264851006
100.337326941295
100.338276536894
100.338394116669
100.338099098212
100.339031339943
100.339221511141
100.338109911136
100.338441190724
100.338331751913
100.33828772372
100.337997690681
100.336860969206
100.3362418155
100.338087291154
100.337430683053
100.336470754488
100.336460766291
100.337433254876
100.33806168835
100.336216289974
100.336862059881
100.338050087015
100.338343650682
100.338384039232
100.338469519328
100.338114884258
100.339213551126
100.339022431538
100.338089444515
100.338384534596
100.338264932928
100.337314325291
100.336249819114
100.338225666796
100.339898458685
100.339072535158
100.337731202138
100.337798397023
100.339366645236
100.340511975708
100.338670307015
100.336764686251
100.337522459463
100.338332831338
100.338426763983
100.337717418537
100.336952540579
100.338825680119
100.340607832801
100.336993267208
100.32782064726
100.328380072622
100.328524333427
100.328080304291
100.328920384912
100.337272758267
100.337654534245
100.337685296352
100.338527186633
100.340231339503
100.33763731699
100.336840678968
100.335650157698
100.338866613801
100.336596252694
100.336036463589
100.334704089665
100.335853734625
100.335335960587
100.339261098378
100.339305611337
100.335363864468
100.335938204974
100.335062447016
100.336179450463
100.334657364041
100.337258532709
100.337771254002
100.338291976972
100.336733020296
100.338985582464
100.335677502091
100.336829683485
100.337626032499
100.337251610533
100.337177486672
100.337040496158
100.336976975127
100.336997598372
100.336796471656
100.336770788052
100.328723672699
100.32720609962
100.326918684408
100.327191884916
100.327226011031
100.3269960772
100.32735386733
100.327447016492
100.328804423898
100.328685091466
100.328872545538
100.329905137287
100.335057341843
100.334455765082
100.331091419425
100.329412790157
100.32832220713
100.328412283009
100.330263116208
100.329805392371
100.329770041196
100.330183760281
100.329801638905
100.328785301991
100.328635607232
100.328769618398
100.328896837299
100.328061623136
100.328513094038
100.328382027927
100.327843550133
100.328754390738
100.327208838041
100.327777713879
100.327783343685
100.327763193357
100.327891246613
100.327906398133
100.327837779951
100.327949717882
100.328054158797
100.328227246166
100.327619098798
100.3279311618
100.328184769032
100.328224775645
100.328204069718
100.32849305531
100.328765751511
100.328713633337
100.328283958
100.328190470865
100.327835288623
100.327559692582
100.327403942126
100.327318910683
100.326966434027
100.327211867123
100.327178419384
100.326905956592
100.327735481162
100.327589016713
100.327604577454
100.327614649634
100.327614698258
100.32772490282
100.327745815697
100.327731241613
100.327802379759
100.327798952741
100.327916486775
100.327792573878
100.327757464311
100.327702661225
100.327806731865
100.32780544684
100.328475791393
100.328114648233
100.32812398335
100.328117752852
100.328183186137
100.328010748428
100.327905798307
100.327802002916
100.327871707358
100.32786104945
100.327685252982
100.326656592695
100.326585886357
100.326626848082
100.326640077401
100.326625851097
100.326714638947
100.326743285679
100.32674353589
100.326839397073
100.32680733681
100.326873544493
100.326796099166
100.326803986707
100.326767135533
100.326810142885
100.326810022127
100.326768919432
100.326801086429
100.327743534869
100.327748705701
100.327866082681
100.327745680701
100.327741390368
100.327676613907
100.327693149713
100.326666299077
100.325474734941
100.325457548739
100.325417965494
100.325467970831
100.325490372395
100.325482571477
100.325554601769
100.325595486783
100.325608519675
100.325722859612
100.325721403563
100.325783068634
100.325752430463
100.32580095511
100.325789682027
100.325820249847
100.325796653228
100.325736145287
100.325724303226
100.325646577461
100.326749016395
100.326811409173
100.326721223774
100.326749606669
100.326659839725
100.32547113392
100.324330079309
100.324319641887
100.324299262146
100.324269898868
100.324332746617
100.324372233812
100.324379730509
100.32446123471
100.324520212894
100.32454986223
100.324693653327
100.324723977932
100.32479839811
100.324799446799
100.324874449902
100.324877433333
100.324914661039
100.324891278224
100.324808422066
100.324759784193
100.324644863198
100.324624978798
100.324520758497
100.324476123493
100.323311802828
100.323107708864
100.323092439377
100.323066951203
100.323027493103
100.323125299714
100.323192133892
100.323218489098
100.323333407791
100.32341813848
100.323461107392
100.323655496001
100.323720885122
100.323817153747
100.323845649208
100.32396444021
100.323977261547
100.324050786369
100.324048289969
100.323970563813
100.323881384295
100.323652550334
100.323550471767
100.323404795053
100.322055727349
100.321879218118
100.32160062338
100.32159965285
100.321571906685
100.321489089922
100.321670910566
100.32178184761
100.321821219997
100.322003676853
100.322127107822
100.322156127043
100.322425275898
100.322548334383
100.322686845088
100.322773576377
100.322977449737
100.322983171103
100.323169590969
100.323160797904
100.322969857121
100.322846128197
100.322484689287
100.322276087068
100.320566384022
100.320256585446
100.319935398825
100.319469353319
100.319566881032
100.319569403019
100.31937590285
100.319755901844
100.319933606306
100.31995537172
100.320256015004
100.320413913296
100.320336098614
100.320771690892
100.320989388527
100.321189310046
100.32141626247
100.321851068922
100.321749593223
100.322119622093
100.3220673378
100.321615154541
100.321556370973
100.32094564237
100.318759368424
100.317829689007
100.317383300395
100.316931506662
100.316139783459
100.316426434151
100.316520269987
100.316143919909
100.316993144112
100.317280559146
100.317121163367
100.31770424888
100.317852320927
100.317571481104
100.318293012223
100.318516720646
100.318764355834
100.319468052261
100.320359023758
100.319920868493
100.320775838261
100.320675353005
100.319614444718
100.319886316492
100.318286326674
100.315578134824
100.311897347794
100.312089791074
100.311444996065
100.309776581879
100.310818441686
100.310969974835
100.310290219023
100.312160844077
100.312677398271
100.311963967445
100.313128929581
100.313188671858
100.312217611278
100.313707299699
100.313811348769
100.313344418167
100.3166971187
100.318817617832
100.317395113495
100.319191336948
100.31902524075
100.316892603471
100.314467937547
100.309130090405
100.303745861174
100.302069279612
100.304972273432
100.30404727642
100.300463881094
100.302761912802
100.303157894188
100.301974074608
100.305392959797
100.306429963516
100.30479482556
100.306874889113
100.306662247155
100.304388725029
100.307477626497
100.307783304757
100.304183949221
100.305200803186
100.310177557215
100.315137047961
100.310247639876
100.308926813826
100.308660903742
100.309689437863
100.3234077807
100.324569163987
100.322463334303
100.31600277603
100.316240696949
100.313869161112
100.310719955973
100.312762483585
100.31365518202
100.313784836107
100.3163691569
100.318006551913
100.318330801647
100.319433291367
100.31867114509
100.316437712568
100.318571964786
100.31984724385
100.318877217749
100.324254173842
100.32580076341
100.323742470021
100.329054987705
100.328760717919
100.367882513356
100.363745980105
100.359462929457
100.35774764018
100.351100980875
100.347131562583
100.343145795064
100.345671020244
100.341585704849
100.344633730472
100.347128902357
100.358955692405
100.381043456162
100.38490672638
100.365684644312
100.348670052534
100.344773140586
100.393278885039
100.430346014403
100.414357025702
100.421051511971
100.432598149692
100.418323036362
100.403825151199
100.355308784456
100.352895204774
100.349719209742
100.353597081764
100.349174273826
100.35139333884
100.354208652639
100.359599756596
100.360758536757
100.364036954682
100.367952698272
100.409578035271
100.409786922954
100.425420887082
100.413597379406
100.404853900622
100.399941563673
100.395571005554
100.402246108808
100.382846366917
100.377991845773
100.393290045245
100.382507038721
100.392404816347
100.397498010436
100.403256226712
100.415905591332
100.448774375019
100.449458759028
100.45768878056
100.469196652349
100.44664634639
100.446485920489
100.439887975764
100.404383036692
100.392746880817
100.412539784988
100.443457806851
100.46200360462
100.474830336821
100.479224355613
100.480689223517
100.483230828787
100.484676244091
100.485464916966
100.485704127367
100.485359463957
100.484974990629
100.485279126289
100.485973057723
100.486646144551
100.486995067517
100.487074076575
100.487082041266
100.487083581635
100.487306124914
100.487690359679
100.487827592491
100.48839630231
100.488422405138
100.49215017191
100.498733623259
100.518221007713
100.51410057152
100.469708719171
100.427157857158
100.381612651632
100.35622008877
100.372610933212
100.372780220694
100.370975771646
100.371061610186
100.37200825178
100.373025524638
100.374102120821
100.375372956355
100.376790365084
100.378178350844
100.379353502229
100.380185670854
100.380588513934
100.380064328806
100.379447862326
100.37871406059
100.37784851494
100.376821403076
100.375546222235
100.373995091185
100.372267281786
100.370519826926
100.368933622566
100.367619267606
100.366589248768
100.36577588903
100.365128600411
100.364657675758
100.364445943378
100.364570443396
100.365174949669
100.366442758602
100.368282086406
100.370176806812
100.371617770506
100.372148521024
100.372052869933
100.372114574685
100.372110893271
100.372129436644
100.372169757805
100.372185966377
100.372239839267
100.372372369139
100.372603806265
100.372788718989
100.37283782305
100.372907830922
100.372844115358
100.372601357522
100.372465757159
100.372362864869
100.372382638005
100.372568791431
100.372459547407
100.372251186864
100.372159684409
100.372108689838
100.37207150293
100.372076451247
100.372033991772
100.372029684261
100.372035161366
100.372011601494
100.371918358768
100.371923836741
100.371967077656
100.371973739845
100.371974153484
100.372008080919
100.372041706205
100.372070695691
100.372114840016
100.372316379004
100.372044046714
100.372103814478
100.37209973603
100.371933782243
100.371909417269
100.371961688671
100.371950489025
100.371907386833
100.371891032107
100.371884467852
100.371874559851
100.371814735299
100.371808676683
100.371594883574
100.371054612644
100.371570564925
100.37178273276
100.371763352023
100.371800646011
100.371796323612
100.371815720265
100.371824513659
100.37185490397
100.371811485184
100.371932614564
100.37204533404
100.372053723382
100.371894365701
100.371887302027
100.371850633921
100.37174397578
100.371606866088
100.371633181582
100.371569429584
100.371778310716
100.37182919371
100.371816860234
100.371759470026
100.371768644131
100.371730518518
100.371746905631
100.371725173063
100.371739861928
100.371708998147
100.371718092248
100.371518680028
100.370819678458
100.371491532541
100.371689877407
100.371666323189
100.371686940883
100.371666176498
100.371672122475
100.371677724447
100.371687962614
100.371666271191
100.371717758113
100.371683294247
100.37146641056
100.371498461228
100.371600421925
100.371462779051
100.371562385966
100.371475709979
100.371631201697
100.37159404409
100.371637322207
100.371640002048
100.371617588202
100.371649870365
100.371632081367
100.37163421841
100.371629448194
100.371641903362
100.371460560107
100.370744727683
100.371465806373
100.371630295493
100.371607288688
100.371603432096
100.371604343045
100.371587368574
100.371580131392
100.371561329674
100.371505582533
100.371536097607
100.371492290945
100.371466256421
100.371411723143
100.371180690228
100.371039653742
100.370958763229
100.371258399203
100.371125031985
100.371363408643
100.371440931198
100.371467744784
100.371501978022
100.371550106766
100.371556746379
100.37157776968
100.37157593677
100.371584421661
100.371603448136
100.371460914357
100.370686255538
100.371541796537
100.371582268573
100.371569515453
100.371545990264
100.371547909848
100.371509116874
100.371552642433
100.371528408062
100.371452474056
100.371436924712
100.371383197103
100.371252547058
100.37115016845
100.371377821047
100.371433122711
100.371474126007
100.37144092433
100.371387336074
100.371232882584
100.371075280082
100.370664947062
100.370266423387
100.370739245776
100.370703413998
100.371169477735
100.371043059468
100.371281544967
100.371415161364
100.371456592697
100.371516534574
100.371523037291
100.37150595162
100.371492670171
100.37155120415
100.371552988498
100.371535514746
100.371552349527
100.371539510599
100.371351651041
100.370373109463
100.368855557906
100.370698752803
100.371461165947
100.371503838673
100.371525766377
100.371519969201
100.371537752662
100.371512137245
100.371474918981
100.371555021734
100.371551801978
100.371464332822
100.37146358686
100.3714249145
100.371299497432
100.371141203156
100.37141091976
100.371483195615
100.37151770673
100.371528273249
100.371528040617
100.371425193212
100.371177740252
100.370835609146
100.37118548162
100.371489244573
100.371318162802
100.371583822688
100.371615731256
100.371592601088
100.37149817033
100.3715772324
100.371557777649
100.371432412312
100.371433981645
100.371499799337
100.371480046717
100.371493572555
100.371459634051
100.371452346376
100.370837118427
100.369255913289
100.37116602339
100.371478348071
100.371441223478
100.371453308856
100.371515677212
100.371481081704
100.371417804239
100.371403623529
100.371385784251
100.3713422744
100.370822248598
100.369321899545
100.367947446483
100.370125757929
100.371148275907
100.37132498646
100.37135176204
100.371379229676
100.371405664336
100.371427695834
100.371532558657
100.371539977283
100.371515470866
100.371598792532
100.371631165329
100.371580769338
100.371519196478
100.371685141728
100.371670073946
100.371600513376
100.371549475998
100.371652126146
100.371614612872
100.371421023915
100.371054987869
100.371490604934
100.371551859176
100.371669185331
100.371624077841
100.371645359099
100.371538991876
100.371435852107
100.371491877629
100.371522781069
100.371372698691
100.371374286099
100.371397760221
100.371396265473
100.371341759838
100.371309401399
100.371283637415
100.371238737637
100.370469736905
100.369020344201
100.37101792628
100.371281229212
100.371228744327
100.371265734613
100.371301856014
100.371347837652
100.371286303982
100.371269739879
100.371269326663
100.371441677657
100.371420605376
100.371440023571
100.371564329583
100.371589632344
100.371432028915
100.370993572472
100.371406095096
100.371370742458
100.371529555694
100.37151719837
100.371502350039
100.3714045758
100.371322104966
100.371374511763
100.371272275826
100.371239940025
100.371227639159
100.371235153769
100.371195592516
100.371178516674
100.371193666313
100.370922924743
100.369358000802
100.368375973543
100.370487868093
100.371202898003
100.371156771099
100.371168830465
100.371182217314
100.371180632928
100.371186561135
100.371208224731
100.371330133578
100.371319763062
100.371327460291
100.371436949551
100.371464416501
100.371315987319
100.370887202442
100.371321573408
100.371494394352
100.371401064779
100.371437820659
100.371441579332
100.371311493677
100.371268913816
100.371291129697
100.371216807188
100.371163715952
100.371177696222
100.371137084633
100.371158435118
100.371132898639
100.371180911526
100.370758044528
100.369811852914
100.371118848025
100.371151459623
100.371123747071
100.371090395662
100.371162782934
100.371106926648
100.371156194103
100.371265022545
100.371260359558
100.371232051891
100.371220280289
100.371293405275
100.371435256343
100.371525086345
100.371418862199
100.370992759384
100.371386187099
100.371498858315
100.371414158974
100.371287028692
100.371254528815
100.371424162007
100.371506681728
100.371389757701
100.371025898933
100.371440966892
100.371440410262
100.371515410678
100.37154227736
100.371404979483
100.371283007038
100.371231347507
100.37122303729
100.37125817637
100.371165892483
100.371126439158
100.371124954128
100.371097740878
100.371129538772
100.371110700419
100.371122003526
100.371086571523
100.371179953674
100.37020835239
100.369585688638
100.371042117053
100.371137676119
100.371105980178
100.371093742544
100.371093590369
100.371145763145
100.371111810083
100.371107065893
100.371120652261
100.371149260406
100.371230014175
100.371208979959
100.371225941255
100.371222546001
100.371269801564
100.371433750674
100.371570699881
100.371563510834
100.371177022702
100.371479616959
100.371536404909
100.371411151783
100.371250204096
100.371233125595
100.371429821901
100.371551843656
100.37150921014
100.371144248766
100.371490014794
100.371547554215
100.371531799865
100.371643112249
100.371437464519
100.371267441807
100.371259052281
100.371216231685
100.371251258992
100.371178814139
100.371139858792
100.371111381646
100.371164786385
100.371105293906
100.37112865514
100.371106538926
100.371084056857
100.371099127054
100.370071966514
100.369732584446
100.37099153611
100.37117702686
100.371109223844
100.371129851653
100.371143106035
100.371140817813
100.371137516273
100.371168565866
100.371168645971
100.371161098867
100.371168732465
100.37118799253
100.371155608681
100.370960567556
100.370983649748
100.371203671527
100.371180435628
100.37122256855
100.371199604906
100.37120433725
100.371210609559
100.371191994026
100.371271563217
100.371220022658
100.371283489755
100.37127222049
100.371288603961
100.371451242276
100.371632148988
100.371475236023
100.371445927746
100.371394845717
100.37123649214
100.371296418164
100.371468255948
100.371548348813
100.371535280829
100.371265907601
100.371417161145
100.371460265433
100.371416603215
100.371274124385
100.371301532239
100.37125024111
100.37122630618
100.371193197675
100.371254809636
100.371235716294
100.371251109473
100.371254824799
100.371279093685
100.371313138902
100.370922015799
100.371300416005
100.371303940101
100.371258657355
100.3713230946
100.371291315675
100.371289328632
100.37129556674
100.371260235102
100.371301678594
100.371320526935
100.371328930234
100.371474980444
100.371530117246
100.371527714714
100.371240070056
100.371444987183
100.37148041073
100.371439523622
100.371320993906
100.371326422662
100.371296066682
100.371303578121
100.371275464609
100.371320167252
100.371313706333
100.371339893834
100.371346892936
100.371391258811
100.371394138331
100.371028530872
100.371493717187
100.371357160629
100.371368288961
100.371405073487
100.371360263142
100.371348862211
100.371341340678
100.371332549623
100.3713343222
100.371373668465
100.371374166261
100.371491237208
100.371543390478
100.371579488087
100.371300147277
100.371530457572
100.371532976408
100.371494093046
100.371381095505
100.371371759845
100.371405348519
100.371411915295
100.371523567599
100.371579300745
100.371673130641
100.371449950673
100.371617355204
100.371598207754
100.371529451095
100.371408549361
100.371409186857
100.371380723315
100.371345701664
100.371373879232
100.371377611834
100.371379705951
100.371403049658
100.371411138678
100.371464309885
100.371466969952
100.371206771262
100.371394170008
100.37141240684
100.371469958006
100.371460589523
100.371435629617
100.371420988207
100.371408002574
100.371404641925
100.371420076109
100.371434305589
100.371435615457
100.371583840162
100.37169075539
100.371830548354
100.371676659526
100.371776590449
100.371699697083
100.371592970742
100.371444048113
100.371443696361
100.371477259256
100.371476492352
100.371656070091
100.371788363284
100.371951988659
100.371811566413
100.371854066657
100.371765626535
100.371661776929
100.371471428361
100.371480860663
100.371467742253
100.371426390401
100.371447950937
100.371453640109
100.371480947217
100.371486195077
100.371487430969
100.371524044497
100.371534944074
100.371474493974
100.371486924554
100.371568447374
100.371485395273
100.371552490327
100.370728380756
100.371039025905
100.36970750764
100.370382516805
100.368773543929
100.367370496344
100.368235692492
100.367071319577
100.368164763696
100.36708597815
100.366320627977
100.367340111839
100.366606739422
100.366182180653
100.367351297319
100.367089041922
100.367014529602
100.368714310865
100.368874978526
100.369072445289
100.36936463354
100.369721729473
100.371212335202
100.370896933606
100.371309803181
100.371676046295
100.371953674257
100.372353303315
100.372179464332
100.372262697582
100.372310295477
100.372349976333
100.372386447409
100.372447229579
100.372535078837
100.372761784879
100.372989235808
100.37320165758
100.373269136749
100.373273584044
100.373099080459
100.372991975577
100.372762893976
100.37246615318
100.372358290854
100.372423018105
100.372525680847
100.372805781737
100.372547048912
100.372390716591
100.37230049504
100.372090564428
100.371829877113
100.371450958232
100.371094517712
100.371231905077
100.371304084119
100.371169118564
100.370939254522
100.371029081514
100.371145311844
100.371403328794
100.371565436971
100.37147614006
100.371526250525
100.371640954039
100.371584850805
100.371611133735
100.371558908245
100.371800851738
100.371719457404
100.371778878094
100.371847590309
100.371922888081
100.372020321636
100.372099911218
100.372201856132
100.372234819948
100.37228298375
100.372323609879
100.372364252188
100.372525557887
100.372790313952
100.373006943499
100.373093461156
100.373111563097
100.372910844628
100.372653713337
100.37229530491
100.372215850255
100.37224098009
100.372262123592
100.37235316426
100.37255327742
100.372666943621
100.372895842645
100.373117762876
100.373325699849
100.373414437202
100.373422917273
100.373294241518
100.373053117993
100.372783973531
100.372632724646
100.372195543571
100.371754627302
100.371316506088
100.371422864399
100.371571691443
100.371496732524
100.371365499721
100.371268755127
100.370495569904
100.370020132324
100.369884517301
100.369808207204
100.369640153785
100.369781437655
100.370176576551
100.370358682591
100.370413451122
100.370050467603
100.370429534317
100.370672603647
100.370757258534
100.370499547566
100.371507887323
100.371807754436
100.371830051927
100.371945831
100.37197862118
100.372089633399
100.372142180987
100.372147618634
100.372180184716
100.372123453317
100.37221464114
100.372264249056
100.372334253029
100.372402624561
100.372438828921
100.372472051769
100.372577697653
100.372659325184
100.372780855169
100.373010306434
100.373255785456
100.373490134817
100.373569259471
100.373573151558
100.373466017878
100.373227460948
100.372945826667
100.372516771105
100.372078583569
100.371631683921
100.371470553577
100.370777913066
100.370435686393
100.370282114676
100.370156041943
100.370028667296
100.369782365334
100.36980645707
100.370174755559
100.370431798579
100.370492552775
100.370634326486
100.370312896378
100.370691315086
100.370939151011
100.370717080628
100.371349222068
100.371857148658
100.372176052306
100.37230857108
100.372295311646
100.372281355564
100.372410208196
100.37249275792
100.372536288528
100.372637168412
100.372679915294
100.372755327588
100.372864815717
100.373116896661
100.37337872675
100.373603754645
100.373692626542
100.373701315477
100.373589781722
100.373358425529
100.373064460096
100.372655239818
100.372219538792
100.371755100322
100.371105709472
100.370827061084
100.370662025489
100.370340124051
100.370106855253
100.370018957697
100.369825513942
100.369589322505
100.369832182918
100.37008027867
100.369778650666
100.369670150834
100.369435521986
100.36913986849
100.368868313306
100.36866247967
100.368512644879
100.368433005137
100.368699349309
100.368945156962
100.369148696194
100.369405541299
100.369608393518
100.369262439664
100.36934404965
100.369604609431
100.369665273897
100.370466367551
100.371044376384
100.371754102933
100.372038817816
100.372126756011
100.372244251074
100.372280709462
100.372480852824
100.372495859693
100.372403524953
100.372486899867
100.372582748247
100.372669459351
100.372727084435
100.372761533003
100.372849005197
100.372979159382
100.37325385042
100.373517730252
100.373734632727
100.373828068058
100.373834765876
100.373732461457
100.373499221408
100.373209770061
100.372789323544
100.372365474022
100.371919159485
100.371271882005
100.371007259204
100.370741633046
100.370542582127
100.37050557532
100.37024462361
100.370084236691
100.370355121317
100.370092267946
100.369840164764
100.369592086872
100.369258771347
100.368947632212
100.368486390472
100.368749649431
100.369159514771
100.369453815186
100.369604083145
100.369840986298
100.369831092181
100.369683799582
100.368984112516
100.369268124936
100.369466653619
100.369506369425
100.369603834444
100.369166789425
100.368658748412
100.36801224173
100.367391248271
100.3662087872
100.366126937265
100.366715988578
100.367403328183
100.367984919794
100.368553708941
100.36908993363
100.369975683683
100.367668102726
100.367118153424
100.366743089998
100.366493907793
100.366166102789
100.3659813769
100.365102707466
100.364126029581
100.361736625412
100.365164001356
100.366477759353
100.365505742127
100.364222996789
100.363204717248
100.361399306673
100.359798207432
100.360776697377
100.361789578232
100.363620498882
100.363576848101
100.364182417848
100.365240020589
100.366333249369
100.366991130365
100.367720281463
100.36832524113
100.368958503671
100.369480044349
100.369984255875
100.369604668392
100.37036979197
100.368421271953
100.3730078398
100.373027286969
100.372773822098
100.372474303544
100.371984083966
100.371185410658
100.369927388739
100.368447285125
100.367511472611
100.36638137231
100.368137088642
100.368214908527
100.366288402975
100.363391004642
100.361732144044
100.360739194941
100.352634565655
100.355022335188
100.355673969387
100.357218116125
100.359757489965
100.361482679256
100.366061729063
100.368136827904
100.370336793211
100.370351805012
100.37066283928
100.369015772693
100.36944074099
100.36985932307
100.370350361403
100.37065294114
100.371157124828
100.372261251277
100.372525922612
100.372592041442
100.372393740996
100.372562739091
100.372645339266
100.372757917291
100.372820028395
100.372846699681
100.37295703938
100.373074586042
100.37331583572
100.373583658947
100.373805877386
100.373908228575
100.373920087627
100.373831973522
100.373583998465
100.373308474825
100.372861472676
100.372436196174
100.372024127549
100.371402974354
100.371160069978
100.370892614484
100.370742166037
100.37070611422
100.370583113185
100.370817516142
100.370616512251
100.37065912442
100.370759790677
100.37089060309
100.37067494989
100.370491990106
100.370143974029
100.370276305439
100.370517539248
100.370398596277
100.370129161506
100.369757858368
100.370164035946
100.369774557081
100.369407190084
100.369056484546
100.368669751129
100.368247834181
100.367861074955
100.367222681342
100.367566364843
100.368066724667
100.368486308578
100.368753419133
100.369098564385
100.369449497301
100.369432157021
100.369217884802
100.368743002391
100.368299889276
100.368114220877
100.36856208735
100.368634154618
100.370069233985
100.371015164708
100.371373712581
100.371695231904
100.372635341687
100.372763492059
100.372682168029
100.372530008798
100.372722323038
100.372827052566
100.37288633981
100.372924337292
100.373052919414
100.37315573229
100.373356038464
100.373656079917
100.37388152448
100.373980873762
100.373988590168
100.373917180742
100.373673609304
100.373403916262
100.37297663198
100.372598128286
100.372152534864
100.37160105475