/*--------------------------------*- C++ -*----------------------------------*\
| =========                 |                                                 |
| \\      /  F ield         | OpenFOAM: The Open Source CFD Toolbox           |
|  \\    /   O peration     | Version:  v1612+                                |
|   \\  /    A nd           | Web:      www.OpenFOAM.com                      |
|    \\/     M anipulation  |                                                 |
\*---------------------------------------------------------------------------*/
FoamFile
{
    version     2.0;
    format      ascii;
    class       volScalarField;
    location    "1.6";
    object      p;
}
// * * * * * * * * * * * * * * * * * * * * * * * * * * * * * * * * * * * * * //

dimensions      [0 2 -2 0 0 0 0];

internalField   nonuniform List<scalar> 
87341
(
100.100487534904
100.102499157441
100.098893664695
100.103405731293
100.110422574633
100.110658825219
100.108694226776
100.109295045159
100.109502840393
100.109826284873
100.109995771923
100.109727827882
100.111508939041
100.111055234674
100.113288598765
100.113337882904
100.11084999391
100.107410492157
100.10490633297
100.104572849175
100.104444475916
100.105873297663
100.103679013806
100.105426186106
100.107740879366
100.111892336893
100.10651120106
100.10546747129
100.104709729202
100.104511158647
100.104389117119
100.104811241831
100.105401148
100.106394537108
100.111637389026
100.107578175545
100.105203107375
100.10338113408
100.105512801673
100.104056484658
100.104241058562
100.104580659807
100.107110812635
100.110542792917
100.112895759972
100.112744110472
100.105993382847
100.105068721559
100.102208835248
100.102311697626
100.102647160856
100.102493524501
100.102433723444
100.1022293449
100.099874915341
100.10327785556
100.106718567512
100.105174083695
100.101911415988
100.10089281892
100.10018274019
100.100863681281
100.100809261873
100.10003722886
100.100954191654
100.101987024466
100.105326427807
100.106933163124
100.10353255318
100.100123996314
100.102561623679
100.102775601478
100.102775905631
100.102909734103
100.102469053628
100.102366847147
100.105376685259
100.106402970267
100.10398937152
100.107184846421
100.110265495083
100.111783584386
100.109639816189
100.109402069679
100.110619594383
100.108779746668
100.10631075027
100.102055393698
100.107518707566
100.095998998476
100.08479900733
100.090806300832
100.092016330861
100.102136510043
100.096970620255
100.098018948109
100.100612487569
100.099593308205
100.099071273387
100.099214268483
100.098515802162
100.102884792013
100.103459023313
100.099298756861
100.099720117368
100.09694174982
100.095797897615
100.096790832244
100.096809668523
100.095869752979
100.096992834137
100.099738915131
100.09944264112
100.103631301394
100.103170000138
100.098690659621
100.099591896811
100.099421563455
100.099883767889
100.100899034692
100.098195569022
100.097060857867
100.102587598657
100.102888765917
100.09954951683
100.103257706942
100.109653054128
100.11464228016
100.107593640676
100.107415695442
100.112232409196
100.127572071168
100.097041797027
100.097609268911
100.08222410891
100.055399326534
100.056287882574
100.052024218416
100.052518386895
100.058667490116
100.088909152745
100.100303598948
100.097092640961
100.0967783546
100.10144999976
100.108090813316
100.09011367408
100.090705201112
100.092038684359
100.100955933874
100.096160000242
100.096158258654
100.10092587386
100.092081616354
100.090780608728
100.090243825459
100.088700374671
100.089182211092
100.092481194746
100.090729227517
100.050833882912
100.052908576349
100.054135987186
100.053902768971
100.052943697574
100.052985237442
100.055119007075
100.055514453557
100.059172391545
100.088521992006
100.083672348188
100.067328395999
100.061610245713
100.061449352983
100.058558522962
100.059516044969
100.053984970517
100.054158257808
100.056516092907
100.060229811477
100.060240853381
100.056536886072
100.054161433551
100.059318941623
100.05841335829
100.052092428774
100.0529711914
100.05936849232
100.059787610943
100.058905009291
100.05858772053
100.059502728554
100.059354374187
100.058487195273
100.059582254399
100.059673782698
100.060358888141
100.060529346562
100.059887090882
100.055165355586
100.055972543146
100.055966545037
100.055222681313
100.054160455724
100.05528225645
100.054898215976
100.05837470803
100.059530077582
100.06027809669
100.060573416553
100.059886726314
100.059805441597
100.060491330244
100.060379635414
100.058215649952
100.05798371584
100.05811392236
100.058319587414
100.058435198738
100.058334352895
100.060121678396
100.059229554504
100.059217100656
100.059814239755
100.059298932358
100.058372576618
100.05953609295
100.05801532838
100.057885117608
100.05806051462
100.058137576327
100.05792636922
100.057951086381
100.058208853684
100.055732789078
100.055794317529
100.055747280265
100.05588468702
100.055989938971
100.056109898729
100.056111620611
100.056110688188
100.058317328199
100.060092633072
100.060403112525
100.06020189638
100.058203151618
100.055925665795
100.05582918931
100.055679976707
100.055677514812
100.055664722823
100.055585728864
100.055622990357
100.053571941843
100.053710910299
100.053762855947
100.053686111183
100.053855009078
100.054064060225
100.054256871768
100.054290273244
100.054309916795
100.054302842079
100.056099185358
100.05837335313
100.058780580686
100.056306240026
100.054554555763
100.054089687118
100.053900410379
100.053757005968
100.053801157953
100.053752497209
100.053576953047
100.051484522358
100.051386867285
100.051716614468
100.051738629797
100.051582644708
100.051818571695
100.052278799795
100.052626716362
100.05267476435
100.052727895814
100.052791465012
100.05246982083
100.052036795572
100.05187359776
100.052008423549
100.051910611283
100.049514758838
100.04871963659
100.048489368949
100.049118295559
100.049247888537
100.048928663789
100.049223679529
100.050064382847
100.050650878263
100.050756005646
100.050884508018
100.051014325259
100.050510413989
100.049704018894
100.049486923293
100.04975250584
100.047353039357
100.046863693161
100.045237477025
100.044731345576
100.04606668611
100.04646782861
100.046526067912
100.047002554842
100.047785393625
100.048799819477
100.048748434123
100.049016659174
100.049560980092
100.048721738061
100.047993334846
100.047516708084
100.043058886742
100.03695201242
100.03521441109
100.037535084606
100.037368203922
100.035486467313
100.036035006721
100.041494865337
100.043044019371
100.040318446392
100.043591571927
100.04538608882
100.045914456318
100.045022558895
100.042055381246
100.044857489506
100.066905392886
100.066119650848
100.066873800603
100.06904300913
100.076494748171
100.06603901778
100.065318163528
100.074216149516
100.071531511507
100.063902317004
100.070365965057
100.082227121422
100.080434231183
100.069211926333
100.060957419166
100.059985536213
100.057747556948
100.062981437597
100.065604249073
100.070743713427
100.064155886907
100.056624837905
100.055543151653
100.052147429737
100.046526384975
100.045248443333
100.049282261025
100.052510424347
100.053386840811
100.056964209421
100.071217393417
100.065148928848
100.068857742732
100.06233953694
100.064617017417
100.05904956249
100.069988592215
100.067643646878
100.065807931675
100.069805181434
100.088656492735
100.124169278631
100.166589892707
100.215550310682
100.26545929591
100.318676183693
100.361009136184
100.393216470386
100.430377327245
100.45643691319
100.469071051385
100.480322310775
100.45102510686
100.454100891597
100.456284378806
100.456905245265
100.456243372231
100.454569836053
100.453722478476
100.461386293541
100.459656765837
100.460927754413
100.463570907711
100.464405000565
100.4640726872
100.462750490197
100.462562832572
100.438524255689
100.451613179576
100.46557363896
100.457129646506
100.448667876318
100.436912522832
100.436187457996
100.441795942811
100.435940307846
100.413780613709
100.421216398165
100.432334829829
100.434364201697
100.423585848639
100.42369251682
100.432143185146
100.441513556357
100.438718580441
100.455147113831
100.405134775753
100.415159254733
100.418142934389
100.418581239532
100.415604237337
100.405540620296
100.409677562588
100.410660844453
100.404177304087
100.398247061913
100.403577580758
100.408814718295
100.408892656169
100.403358368993
100.396230794294
100.400561851593
100.408854137323
100.409331674901
100.459621671834
100.456105566498
100.3973257757
100.399791893034
100.397107530149
100.396455012966
100.400687638365
100.390325633853
100.387321989127
100.399111974596
100.397943127411
100.395520029227
100.399003076902
100.39727326711
100.402536906999
100.397939269299
100.394319244338
100.402240986607
100.420962998278
100.446655018392
100.445736727523
100.454429922704
100.454721523627
100.455366155332
100.456822224237
100.460237308523
100.461503484897
100.464115064418
100.461033356319
100.462924110513
100.464571240367
100.465328074686
100.459739475019
100.472461810079
100.456823524371
100.443674103092
100.442165909212
100.453415365534
100.44779716017
100.441846168704
100.438366852484
100.427214779183
100.419122771291
100.439433401086
100.460811044253
100.463006557906
100.463758056686
100.415618921249
100.415209894987
100.414204123291
100.408187744938
100.401239543985
100.406491786442
100.402671615915
100.397222734276
100.402292515611
100.405686942085
100.402062909539
100.404649768351
100.402728026455
100.406110239347
100.401938972482
100.398091052461
100.402384813326
100.401987841785
100.404916269622
100.401091273163
100.399229160291
100.408704126546
100.413211160078
100.421589742565
100.432437412046
100.435082518465
100.431174820523
100.424534960007
100.429803417947
100.464163636834
100.493310467892
100.477047477774
100.496936769567
100.512425122742
100.473832886449
100.448277365107
100.442388181623
100.459200233533
100.458129586799
100.462466608728
100.4975969653
100.485680027402
100.485593329262
100.468037373047
100.47468337013
100.465627809486
100.465077664692
100.470049307739
100.465124751952
100.482315818642
100.465381067
100.473063519867
100.469560442981
100.470230010153
100.473374380332
100.481965129019
100.491546967799
100.4936072609
100.477860275815
100.47538770978
100.477770907648
100.48374820948
100.478330648314
100.451035644743
100.419315083388
100.418155332737
100.425196115767
100.428970397609
100.42651480459
100.41656194737
100.407094176543
100.398608265105
100.404994300051
100.388666176276
100.385008302951
100.39954833909
100.39939936343
100.409149193228
100.406200140136
100.395248374672
100.388334880542
100.404611339926
100.417134156503
100.413978249032
100.411058435809
100.404574178195
100.450997928123
100.454895987847
100.451284574549
100.409972513666
100.417697480497
100.418772782627
100.417538664569
100.414918538411
100.412292771163
100.421852247707
100.445467801029
100.455116614867
100.452159639948
100.407979404268
100.410010603161
100.390094825248
100.399552121794
100.412048878594
100.412792822425
100.407136216538
100.395313860882
100.399532541598
100.405532098213
100.418910769694
100.423738591674
100.43512033583
100.466846553708
100.502767470492
100.501878965804
100.484683997795
100.488187617316
100.490184820326
100.502632652234
100.507485100006
100.4921538451
100.491470982005
100.482989495127
100.515523862538
100.512738615402
100.509962558762
100.505000006408
100.492553817253
100.49398358606
100.507807828829
100.504806384187
100.499701947288
100.499562771653
100.50286922582
100.502218563975
100.503398675333
100.480891033793
100.491713966478
100.465577180224
100.452967705589
100.452121540628
100.4553983103
100.469481219141
100.447199009599
100.451546803184
100.448577759205
100.446596284949
100.442913501276
100.43926483323
100.46339461634
100.466851065426
100.466782909316
100.462319049657
100.456186669941
100.463748970065
100.464522052673
100.464242996593
100.463202327432
100.4623273978
100.462612407484
100.460804693296
100.460450654303
100.461231878924
100.461428203264
100.461455273431
100.462257705092
100.46236793588
100.462124193742
100.462189515624
100.46278202554
100.463075334692
100.463255835144
100.4630896708
100.462474487686
100.461875973129
100.462076721191
100.461881335533
100.461763008479
100.461600111598
100.461493125687
100.461713043187
100.461616894336
100.46185322277
100.462375156865
100.463084358135
100.46373117002
100.465073092468
100.464219050386
100.465207989448
100.465102030833
100.465002081668
100.464991100946
100.464686908343
100.464948323253
100.464688932347
100.465049707041
100.464652195084
100.465018547082
100.464590682787
100.464896523406
100.464849768548
100.465199683577
100.465517094746
100.466249141624
100.465979105123
100.465798282023
100.466415527718
100.466837162783
100.466515414244
100.466477196524
100.467697899053
100.468868372368
100.468996721017
100.473097251774
100.470276831278
100.472552438955
100.471959427245
100.472774150728
100.472080689132
100.472851301549
100.471222022363
100.472027861063
100.471365332512
100.47314336939
100.472958844428
100.475450214013
100.471500867227
100.471421472309
100.472251477208
100.469873095272
100.470763723449
100.468266116641
100.468019356041
100.47118811415
100.471036122971
100.471092136618
100.470832120948
100.471615086316
100.470429109872
100.467506721812
100.466484511451
100.465280604981
100.467615994806
100.467862092819
100.465375504182
100.4710529297
100.470801761871
100.470864426904
100.46972330624
100.469105298462
100.468619006797
100.470119855624
100.470808296522
100.470454984021
100.471131294271
100.471878496953
100.47257350922
100.471682884558
100.472280037186
100.471042241883
100.472111484089
100.469960609202
100.468497226226
100.467851255675
100.468527034902
100.467256589737
100.466504019466
100.464608839987
100.464432743316
100.467114465163
100.466213927106
100.464941155798
100.465117753669
100.466531023281
100.468809452339
100.468309185901
100.470462861136
100.469710487824
100.470726108615
100.469667532469
100.471101437332
100.470660196488
100.469967072766
100.465760255342
100.465146725498
100.468042824558
100.468105151301
100.464922552984
100.46385787048
100.464037555406
100.462021538829
100.459197136401
100.456049634504
100.452848695252
100.447032388732
100.458153490772
100.459312512839
100.459278052636
100.458205534254
100.45425770046
100.458435234234
100.462388430649
100.468359753975
100.465009058391
100.468579394172
100.466663015721
100.464304768734
100.467568059871
100.464920874685
100.46324756452
100.466569703222
100.463479686443
100.46163988165
100.464071488535
100.462802733801
100.462009501568
100.462128429749
100.462251960242
100.462203095927
100.466097247565
100.466769381077
100.465100981777
100.46696265032
100.464852476249
100.465386765394
100.465486744938
100.465762228499
100.465667709491
100.465104737775
100.464704778707
100.465160222075
100.465182006891
100.464996884502
100.464357645337
100.46447979105
100.463685827291
100.463741652173
100.463894620573
100.464000084216
100.464759207532
100.464420071837
100.465363592941
100.464893625304
100.46558695981
100.464661415894
100.465648730694
100.466017802823
100.466127891216
100.465478626347
100.464989365365
100.46561708775
100.464962494464
100.464815852114
100.464128944836
100.466729661181
100.465818341117
100.464846243755
100.462906136337
100.465353138359
100.468137540804
100.465817301475
100.460581890686
100.460835027529
100.467947952825
100.466066879071
100.464544807505
100.463568335179
100.463988485813
100.464052300217
100.46420453406
100.463910419141
100.46329475787
100.46310390588
100.462103882116
100.462032638247
100.461165558257
100.46107121972
100.461024504176
100.46117402491
100.461364001891
100.461589626324
100.46156804548
100.461653187091
100.461986809446
100.461881466809
100.46181978078
100.461665296346
100.461830247649
100.461457826466
100.46162343228
100.461555829218
100.46209623634
100.462943679572
100.463291449184
100.463097698342
100.464567652599
100.464356595728
100.464193696603
100.464193035405
100.463272232994
100.463733623174
100.463520425895
100.463554104028
100.461668715568
100.462466742763
100.463893134035
100.46410433487
100.464234375017
100.463095426619
100.462021814358
100.461081151781
100.461585475627
100.461261869788
100.46132005595
100.461324234448
100.461478955134
100.461742517563
100.461945605367
100.461810929318
100.461973400182
100.462215213735
100.462254260352
100.462160287814
100.462177479085
100.462057997561
100.461975322127
100.461879874929
100.461750996645
100.461980411038
100.462519398978
100.462907139514
100.463119460765
100.463557794043
100.46378566123
100.464022105104
100.463667542075
100.462986613697
100.462918570961
100.463540631781
100.463084806286
100.464209363387
100.463920223739
100.464845602197
100.465081622682
100.4647580695
100.465907822012
100.465847852753
100.466248500334
100.465511498508
100.466940990395
100.467018899645
100.466648334084
100.466926720472
100.465010362228
100.466117049224
100.462042670972
100.457684743962
100.459507432539
100.459072695803
100.457718567827
100.455266940499
100.453725259982
100.45636079639
100.457376691694
100.457699530417
100.4584432388
100.458887549642
100.4598430312
100.457970124302
100.45491562906
100.442883107191
100.441285157113
100.440651491971
100.440509286346
100.4403883739
100.440975271319
100.44599520746
100.440563053947
100.431657721999
100.415969372248
100.399506121259
100.425740754969
100.423702598409
100.420580423119
100.420618806942
100.424375937322
100.428165639432
100.41855567079
100.434196522111
100.448413498088
100.443216895512
100.452208265119
100.445324818405
100.443168776625
100.450979578705
100.444290595878
100.443617004384
100.449934460157
100.442907287211
100.445001945929
100.441351883283
100.448706279565
100.445655258166
100.453525223149
100.455369884336
100.459716458867
100.464089784293
100.466415908814
100.469634834526
100.466135982503
100.466878508724
100.466986407085
100.467069371557
100.465430908509
100.465342639414
100.467282752089
100.467302903133
100.466545088858
100.467144209594
100.465996427744
100.46726273474
100.462996468718
100.453114235973
100.442582730848
100.432682533275
100.423594253974
100.431610734755
100.426516510851
100.42724472637
100.420001741109
100.416013968335
100.413160699475
100.411781787549
100.413370768432
100.411591902419
100.417148807698
100.388805093331
100.374165306654
100.37326296889
100.378600886959
100.397228200062
100.397156994822
100.377690057772
100.362950896866
100.363173461177
100.334565911989
100.333831277563
100.334683945138
100.343608123022
100.332876470311
100.315262982482
100.284306447146
100.267531605172
100.304581290643
100.294766774907
100.295545243004
100.306344271184
100.33652049944
100.346485749857
100.337656289843
100.366794390307
100.389287973134
100.389603123832
100.390373990442
100.390863899007
100.391713375626
100.383808434655
100.407696741436
100.391472451866
100.406898596584
100.40481247568
100.412013995272
100.422532975369
100.435964020938
100.456842424368
100.462691870257
100.466223605468
100.467606095204
100.466662325183
100.463488900376
100.46419119163
100.445062400707
100.429147321724
100.394371527466
100.371071826348
100.355514621324
100.345373215416
100.341935730441
100.358242630924
100.346849298063
100.347899696272
100.334914029129
100.335407233356
100.333075429419
100.330528783293
100.333914020903
100.292976373747
100.279460698132
100.288088652252
100.319241120575
100.363154846913
100.393119025203
100.41869833636
100.438909311853
100.449448196353
100.455504385482
100.457804731537
100.458918157883
100.46572863698
100.498607104319
100.483822646834
100.480459587596
100.479529445803
100.477713582398
100.482048861927
100.487349746716
100.505928566264
100.494537630721
100.482453194047
100.479301807388
100.454121915114
100.437213164568
100.436209601839
100.440682004622
100.456820766114
100.44516051513
100.440451620384
100.435377661003
100.425270116009
100.426135945973
100.435697812834
100.436388937185
100.427754128002
100.428876669686
100.438571931797
100.442669336746
100.445269408125
100.458878191913
100.424050044408
100.422086966183
100.418708985176
100.410189176868
100.411056958955
100.421124595133
100.41324955767
100.413096862133
100.406701463443
100.400895265739
100.407356161576
100.412753341964
100.462024656913
100.466768807139
100.464014276294
100.466353536869
100.463249351789
100.468570373207
100.467693424188
100.468378721198
100.466946727432
100.46437301536
100.462913447395
100.462595609178
100.463045341867
100.465821307394
100.465331134355
100.46482583019
100.466444295343
100.467555098317
100.466497077363
100.466911263008
100.466855791941
100.466885444312
100.466830140742
100.466303187169
100.465704832689
100.465850170664
100.466854287948
100.468767372596
100.469687506298
100.469900920656
100.469293818741
100.467494311089
100.468474582027
100.468961653992
100.469405354373
100.47108940981
100.470118237682
100.470133827411
100.469381606148
100.469768716916
100.470687125124
100.471712373525
100.472316650297
100.472879435673
100.474256003073
100.472971202469
100.472654581593
100.472479906863
100.471765587667
100.471931239199
100.471759201533
100.471450213569
100.471126411748
100.470356478248
100.470882109538
100.471833067103
100.472381825918
100.472763925289
100.472722215898
100.472761545835
100.473039894689
100.473298238999
100.473467773746
100.47313975951
100.472594422077
100.472144033797
100.471298795878
100.469392238632
100.468227934768
100.467830971779
100.467382720053
100.467309878443
100.466324574196
100.46695126963
100.467850324409
100.467756602938
100.468573748806
100.468608225595
100.468943797718
100.469334836687
100.4704767959
100.472207155864
100.472980032705
100.473325977109
100.473408338412
100.473885017917
100.474233294957
100.474033279083
100.473584126013
100.475203196109
100.476135534567
100.476432986487
100.475918028902
100.475214276069
100.475961763304
100.476887162816
100.477157366797
100.476602134646
100.475411987486
100.474184161044
100.473221325219
100.471445602915
100.470915320633
100.471450575089
100.472811307327
100.472687846141
100.473356614244
100.473877959055
100.475005869003
100.476027591075
100.476538786135
100.476544365914
100.475847401657
100.475377892104
100.474721243816
100.474409264862
100.473175390155
100.472183429615
100.47121354776
100.470699599358
100.470356114378
100.469942789904
100.469414044771
100.470036942794
100.468788534727
100.468641924021
100.467871319393
100.4679171336
100.468060104241
100.468065033839
100.46760950656
100.468134670535
100.467859251478
100.468651597468
100.468500643236
100.467633898611
100.467337740848
100.467288664286
100.467935526588
100.467936576788
100.468469639861
100.468516391238
100.468924337599
100.469647763177
100.469351779221
100.469562929904
100.468677096256
100.468895502746
100.468767166193
100.468914884061
100.468808618824
100.469874906274
100.469766443908
100.470158412797
100.470528990776
100.470710562794
100.470771330933
100.471737846003
100.472637015025
100.473938267518
100.474653315191
100.475164129807
100.475533711065
100.475323496423
100.47484311479
100.474433949422
100.473424556775
100.472558391163
100.471972910348
100.47046656544
100.469880684306
100.470356801867
100.470557860477
100.471296155125
100.471635729479
100.472397773938
100.473407858899
100.474463457418
100.474905103945
100.474905127779
100.475001634424
100.474445931282
100.473956793121
100.473969827526
100.474216946192
100.473435507541
100.47239215625
100.472152553735
100.471039636625
100.47164529543
100.470935556548
100.471134983813
100.47019062818
100.470622967922
100.46996973326
100.470198475182
100.469803669195
100.469864571841
100.469616802083
100.470984475934
100.47044689501
100.471111657863
100.469916922453
100.469095883485
100.469076790393
100.468735468744
100.468023002102
100.467392648623
100.466586691713
100.466026217627
100.465561041891
100.466198839906
100.466368715685
100.467283167102
100.467666338375
100.466858432829
100.466609551379
100.466190131588
100.465970620511
100.46501031759
100.465301107466
100.465066209416
100.465263297828
100.46643669816
100.466505702885
100.466127699242
100.466108584608
100.466309409607
100.465906378317
100.465834764404
100.46521879139
100.464640554034
100.464550721653
100.464829745125
100.466603359781
100.468022551437
100.469016059933
100.469074596556
100.46803602321
100.466858318987
100.467285248166
100.467666513657
100.466636059193
100.465578706143
100.465747872886
100.465831178739
100.465743049781
100.465752424219
100.465484043928
100.465061133818
100.465858362703
100.465399181167
100.466767986043
100.465341337948
100.464364917047
100.465502448688
100.466192320578
100.46722875508
100.466877224219
100.466098753699
100.46592502249
100.46722853917
100.467335570891
100.468123384323
100.468862517702
100.467638372573
100.468478831653
100.46869891175
100.469808931237
100.469832660099
100.469967231066
100.469144754381
100.469112175268
100.468797566496
100.46851175281
100.468850327156
100.468492092447
100.46890655841
100.4691604019
100.468576540178
100.467818026876
100.468365022996
100.468149009062
100.468874565274
100.468605758664
100.468589718885
100.468541466767
100.470017896412
100.46990360633
100.468242533825
100.467752604462
100.467024417768
100.468301291742
100.468551882213
100.467570303428
100.468240628992
100.467670947593
100.467842062539
100.468120987647
100.469245677875
100.468428365073
100.46847045157
100.468084456884
100.468311834846
100.46842684979
100.468637862969
100.468680364334
100.468532927616
100.468772359927
100.468931871261
100.468216256303
100.468591249403
100.469119739385
100.468176252556
100.469580154569
100.469386642796
100.46947892477
100.469122367683
100.469157468241
100.469097603797
100.469618726401
100.469871299742
100.468854312482
100.468809285653
100.468504785204
100.468369568107
100.468267297393
100.468264904651
100.468301410894
100.468283770642
100.46800808778
100.468428242003
100.468468584612
100.468449849016
100.46857576574
100.46833728777
100.467974508664
100.467559271793
100.468110417006
100.467925589148
100.46790190536
100.467868370982
100.467735477763
100.467742351935
100.467614824285
100.467953175908
100.467960782032
100.468053714731
100.467917267431
100.467730403702
100.467669469335
100.467628560733
100.467471101079
100.467454822081
100.467373140402
100.467263395825
100.467484046941
100.467710211966
100.467567400869
100.467414321552
100.467768894134
100.468173547074
100.46766513549
100.467402258268
100.467315349102
100.467960988078
100.467368812165
100.467043078338
100.466941785144
100.466449100746
100.466517869257
100.466284454004
100.467613239891
100.468464035992
100.466908232893
100.467021413326
100.46637319388
100.466084572097
100.465699519634
100.465631270998
100.465766707925
100.465895706741
100.466192282351
100.466882317523
100.467350904095
100.466730450043
100.46656761016
100.466414726467
100.465791186291
100.465840120313
100.46788186923
100.467667926614
100.467808684178
100.46747549894
100.467389941579
100.468857759297
100.470638198954
100.469072727324
100.467059009557
100.468265581719
100.468293425632
100.468102888566
100.467896127951
100.467630649447
100.467644328367
100.467503321843
100.467482098089
100.46732221839
100.467292169582
100.467014752495
100.467171358977
100.466908365364
100.467124504729
100.467362026462
100.467351063574
100.467472525942
100.467398374375
100.467224368404
100.467199341992
100.467519872861
100.467135654691
100.467016626646
100.4675408247
100.466802931951
100.466981872791
100.467396938981
100.467197653748
100.466913383414
100.466539595547
100.466701021059
100.465886075052
100.466239663102
100.465462658183
100.464964145457
100.464551903092
100.465507847772
100.467565783289
100.46819038939
100.468246944064
100.468090123523
100.467958109834
100.467965095988
100.468100430621
100.468741188227
100.470196329437
100.471788288277
100.469120462878
100.465670365397
100.463297757664
100.462325899011
100.470699749167
100.470567502464
100.493461477504
100.496325058832
100.460604880501
100.42437321126
100.381930247251
100.35837796555
100.37406824022
100.371305013326
100.369236827936
100.369486929148
100.37031880643
100.371200866567
100.372340409254
100.373891832672
100.375719723585
100.37752258758
100.379026640889
100.380121074803
100.380746783003
100.3794800341
100.377947625025
100.376186063108
100.374299691129
100.372457341721
100.370768249534
100.369339176869
100.368181920249
100.367271801759
100.366542139259
100.365961073181
100.365564880969
100.365453862137
100.365676052382
100.366290841102
100.367485756694
100.369267839064
100.37129979509
100.37265939238
100.37290650315
100.372826955756
100.37285750843
100.372943722092
100.372933324534
100.372976169815
100.373023212216
100.373091665857
100.37317060866
100.373490766057
100.373615694917
100.373683070204
100.373527234945
100.373399346677
100.373392012561
100.373185253702
100.373042498238
100.37300214948
100.372926568663
100.372951175169
100.372884326729
100.372843528525
100.37285506614
100.372812232196
100.372839184055
100.372796223067
100.372738877995
100.372764091773
100.37277200411
100.372781507514
100.37280538618
100.37284945038
100.372792918645
100.373011355243
100.373118655318
100.373346540076
100.373256947842
100.373163737656
100.37291007489
100.372904357197
100.372882571459
100.373054467999
100.372928979185
100.372854987535
100.37270074659
100.372742267838
100.372699252182
100.372701776136
100.372655197785
100.372694907329
100.372663071495
100.3726144421
100.372537949108
100.372301130804
100.372544240871
100.37265539056
100.372633524886
100.372648914595
100.372637046273
100.372612884059
100.372646636318
100.372683394787
100.372680569304
100.372791801223
100.372801218556
100.372796588345
100.37274025279
100.372541362536
100.372674646017
100.372554939235
100.372675200081
100.372689447409
100.372611531256
100.372627971542
100.372622798167
100.372605613432
100.372594799601
100.372609672368
100.3725804004
100.372594933838
100.3724813794
100.372065638383
100.372501463679
100.372587286776
100.372557777051
100.3725694402
100.372558173434
100.372562038407
100.372567394553
100.372551691156
100.372508297849
100.372539928963
100.372460667734
100.372475441249
100.372541794289
100.372530265957
100.372508550485