/*--------------------------------*- C++ -*----------------------------------*\
| =========                 |                                                 |
| \\      /  F ield         | OpenFOAM: The Open Source CFD Toolbox           |
|  \\    /   O peration     | Version:  v1612+                                |
|   \\  /    A nd           | Web:      www.OpenFOAM.com                      |
|    \\/     M anipulation  |                                                 |
\*---------------------------------------------------------------------------*/
FoamFile
{
    version     2.0;
    format      ascii;
    class       volScalarField;
    location    "1.9";
    object      p;
}
// * * * * * * * * * * * * * * * * * * * * * * * * * * * * * * * * * * * * * //

dimensions      [0 2 -2 0 0 0 0];

internalField   nonuniform List<scalar> 
80212
(
100.338152583891
100.337539715569
100.337489431048
100.340247026414
100.343798217102
100.343774030243
100.344090790442
100.344011652462
100.344532247702
100.34604343934
100.345369788422
100.344406669294
100.34472042993
100.345839255262
100.346460813389
100.344682680707
100.344111573241
100.344097133882
100.343778392423
100.343793200542
100.344361747201
100.34458966404
100.345468289442
100.347223304942
100.345629359497
100.343561619562
100.342612279739
100.34243324575
100.342865725178
100.343233413649
100.345841035491
100.345629022054
100.344883409291
100.344499462589
100.343066761213
100.343363505784
100.344090012434
100.343307192432
100.344757990403
100.346727545071
100.346648627651
100.344673264435
100.343258144868
100.34407317769
100.343352577709
100.343050791557
100.34447724705
100.344863371332
100.345599650653
100.345834919557
100.3432308319
100.34286691632
100.342442059138
100.342622281924
100.343571667261
100.345638990252
100.347231397403
100.345475497303
100.344601442129
100.344373872399
100.341282125845
100.341597989912
100.341051606355
100.341292982302
100.341032847895
100.340937010847
100.340500634872
100.340236033122
100.340729769964
100.34067785996
100.341029819394
100.340944562929
100.34073231334
100.341257238052
100.34056518917
100.340114165207
100.340359983776
100.340345791978
100.34041873685
100.340147963054
100.340141487324
100.34041152614
100.340336714506
100.340356024715
100.340128693509
100.340601853119
100.341294229209
100.340764338949
100.340962052221
100.341034823946
100.340674053941
100.340723231437
100.340225900448
100.340493415915
100.340927281004
100.341019448663
100.341281709041
100.341040486401
100.341583476115
100.341268509277
100.340245324739
100.340336722433
100.341520497814
100.34194089404
100.341383825766
100.342021159377
100.341510794521
100.341270053511
100.341432654604
100.341815746918
100.342202677666
100.341443183797
100.341980141941
100.341548630171
100.340350766176
100.337581437117
100.339173685753
100.336732565335
100.336813586746
100.336953707081
100.339668023489
100.337989252975
100.336015209768
100.337077690347
100.33802724724
100.338144993231
100.337849976375
100.338782410775
100.338972701881
100.337861001842
100.338192494569
100.338083047477
100.338039169867
100.337749254453
100.336612668908
100.335993175015
100.337839209162
100.337182533136
100.336222495312
100.336212533882
100.33718520295
100.337813798515
100.335967942017
100.336614099053
100.337802078392
100.338095618031
100.338135905536
100.338221459075
100.33786667908
100.338965489827
100.33877426468
100.337841082247
100.338136181949
100.338016420604
100.337065845395
100.336000932822
100.337977029755
100.339649874076
100.338823755796
100.33748208676
100.337549189534
100.339117563185
100.340262901913
100.338421004931
100.336515066045
100.337273077647
100.338083302622
100.338177199782
100.337467877179
100.336702656756
100.338576057159
100.340358363583
100.336743700933
100.327569494677
100.328129418309
100.328273818184
100.327829492501
100.3286704752
100.337023836774
100.337405253023
100.337435983093
100.338278021977
100.339982512494
100.337388805935
100.336592185873
100.335401786129
100.338618194724
100.336347784283
100.335788083309
100.334456015531
100.335606198134
100.335088192926
100.339013516153
100.33905808963
100.335116245462
100.335691082865
100.334814981785
100.335931520538
100.334409656139
100.337010614564
100.337523300905
100.338044010494
100.336485061275
100.338737792083
100.335429992516
100.336582153641
100.337378597302
100.337003792692
100.336929246058
100.336792149536
100.336728255243
100.336748523974
100.336547336112
100.336521442719
100.328473001032
100.326954887793
100.326667378205
100.326940869396
100.326975136632
100.326745225346
100.32710363983
100.327197219749
100.328554622696
100.328435789111
100.328623834391
100.329656949841
100.334809231697
100.33420738786
100.33084320233
100.329164677687
100.328074345991
100.32816461887
100.330015173802
100.329557565286
100.329522427342
100.329936373018
100.32955435191
100.328537838122
100.328387751843
100.328521376557
100.32864855257
100.327812287818
100.328263906608
100.328132455843
100.327593035893
100.328504065768
100.32695800544
100.327526378048
100.327531284028
100.327511028383
100.327639090435
100.327654441599
100.327586383077
100.327698994781
100.327804366139
100.327978531787
100.327370122345
100.327682741857
100.327936689373
100.327977611021
100.327957513346
100.328247186226
100.328518694794
100.328466944195
100.328037135086
100.327943899899
100.327588630995
100.327312715641
100.327156291132
100.327070934059
100.3267176841
100.326962887529
100.326928804589
100.326655517612
100.32748454626
100.327337330215
100.327351691342
100.327360793781
100.327360513175
100.327470585762
100.32749194611
100.327478207615
100.327550615425
100.327548640884
100.32766785866
100.327544776401
100.32751096996
100.327457480915
100.327562151002
100.327561861337
100.328230473324
100.327869361688
100.327878771744
100.327872420745
100.327937645068
100.327764346601
100.3276586143
100.327553991626
100.327622646972
100.327611034509
100.3274346773
100.326404644349
100.326332537582
100.326371253835
100.326383232026
100.326368314044
100.326457107802
100.326486494987
100.326487825243
100.3265857608
100.326556390558
100.326624448728
100.326548796807
100.326558830402
100.32652396831
100.326568149853
100.326568916796
100.326528466589
100.326560575821
100.327500180394
100.327505127319
100.327622139141
100.327500645664
100.327495184841
100.327428910075
100.327443833706
100.326416607244
100.325224719834
100.325204147186
100.32516140381
100.325208329278
100.325228657088
100.32521970369
100.325291877745
100.325333924141
100.325349056273
100.325466710759
100.325468811702
100.325533584839
100.325506016396
100.325557938763
100.325549738402
100.325582048835
100.325559867886
100.325500240921
100.32548836124
100.325410115144
100.32650811088
100.326569722868
100.326478245904
100.326504776837
100.326412605376
100.32522488858
100.324085084751
100.32406957756
100.324043639518
100.3240094222
100.324066995476
100.324103086286
100.324108327386
100.324190530333
100.324251360552
100.324284169783
100.324433360609
100.324469234625
100.32454899135
100.324554259223
100.324634693409
100.3246423532
100.324682279891
100.324661270447
100.324579553728
100.324530822719
100.324415331151
100.324393516245
100.324286027465
100.324236547204
100.323077116798
100.322866285619
100.322842036614
100.32280734082
100.322761570644
100.32284969586
100.322910980219
100.322934289617
100.323050312506
100.323138115354
100.323186766286
100.323388315148
100.323462860134
100.323567608283
100.323603280196
100.323729438093
100.323749530304
100.323827548092
100.323828462576
100.323752264486
100.323662906967
100.323433460339
100.323328436966
100.323177635817
100.321841162788
100.321653688429
100.321362161864
100.321349013701
100.321305224374
100.321216136657
100.321379777422
100.321481731604
100.32151699304
100.321700411351
100.321830289622
100.321866457364
100.322147804126
100.322286573123
100.322437763293
100.322535212125
100.32275057717
100.322767539189
100.322960208468
100.322956675948
100.322767269261
100.322643417809
100.322280655329
100.322068154537
100.320380142966
100.32006019881
100.319722833312
100.319234576371
100.319317444841
100.319291842307
100.319093371779
100.319440742457
100.319605704921
100.319622930614
100.319920269091
100.32009175807
100.320024302504
100.320480307324
100.320723112921
100.320942224778
100.321186069509
100.321637370593
100.321547472579
100.321932592192
100.321887378686
100.321435682964
100.32137711801
100.320765209018
100.318615004379
100.317677776533
100.317215743425
100.316745368548
100.31590962187
100.316173154323
100.316235562698
100.315837489969
100.316639995952
100.316905466354
100.316737682201
100.317320677861
100.317482697814
100.317216726104
100.317978480888
100.318242361529
100.318523017996
100.319252188174
100.320164856479
100.319743014823
100.320615689377
100.320527766506
100.319470273683
100.319740855184
100.318188893111
100.315494169149
100.31180157837
100.311967707763
100.311302960763
100.309570202498
100.310561553688
100.310664531737
100.309938918567
100.311749096232
100.312223745028
100.311477665334
100.312661307565
100.312743951732
100.31180158924
100.313352246836
100.313532692396
100.313104749176
100.316497562923
100.318660332102
100.317248129544
100.319084760177
100.318939817218
100.316797438307
100.314452824354
100.309150980107
100.303741218018
100.302062360518
100.304924061091
100.303963414469
100.300299616782
100.302505838968
100.302787637269
100.301544971599
100.304894951708
100.30584792069
100.304159924272
100.30628351077
100.306099460098
100.303886759118
100.307076551085
100.307468342035
100.303962228917
100.305044923395
100.310084216543
100.315040637615
100.31020557903
100.308907981734
100.308668067628
100.309718619952
100.323527053588
100.324656468529
100.322522670482
100.316070520042
100.316273223181
100.313876683448
100.310626497607
100.312522661668
100.313336404296
100.31326152737
100.315763011895
100.317251099724
100.317507781905
100.318689679513
100.317976062979
100.315824343981
100.318124804229
100.319531990915
100.318680863168
100.324127720908
100.325752857565
100.323776072635
100.32913817637
100.328876022828
100.368080234744
100.363976192281
100.35957994861
100.357872887602
100.351228503224
100.347249528063
100.343229179065
100.345702508133
100.341464186527
100.344333946121
100.346604810586
100.358289963995
100.380118152975
100.383747269734
100.364578673539
100.347670599485
100.344046159781
100.392549805762
100.429521981242
100.413343590625
100.419655891412
100.431181316647
100.416879193398
100.402435582678
100.354230089676
100.351939085013
100.348893872409
100.352890901643
100.348703136975
100.351066779014
100.35405440849
100.359533438081
100.360780023756
100.364153151542
100.368095781522
100.409768750373
100.410046566807
100.425701386331
100.41389948593
100.405247106084
100.400206742045
100.395776894925
100.40244791262
100.383032441976
100.378144635484
100.393431835526
100.382590292246
100.392442816817
100.397443572181
100.403010286474
100.415348936139
100.448269186502
100.448479350074
100.456259158931
100.467865070309
100.445213602009
100.445128254691
100.438845442514
100.403302846097
100.39165060217
100.411218057688
100.442463637635
100.461042896255
100.474001586774
100.47859475461
100.480482599253
100.48320506029
100.484351754599
100.484317641607
100.484099606795
100.484177788919
100.484154067036
100.484160063945
100.484577819658
100.48498176117
100.48483625357
100.484268108069
100.484260073501
100.484768592365
100.485642309279
100.486691279778
100.487717661681
100.489577825883
100.492672155704
100.499692854748
100.510034100797
100.529723117136
100.521797578938
100.474250089033
100.429447327692
100.382013499355
100.355786902954
100.372621585878
100.372894494575
100.370971683896
100.371025868316
100.371984324587
100.373021580932
100.374123141418
100.375433055096
100.376905130403
100.378353043562
100.379578737793
100.380445906976
100.380864494117
100.380370639488
100.379739531257
100.378941079379
100.377965598622
100.376800771333
100.37539477977
100.373756551917
100.372012576585
100.37031027313
100.368805098598
100.367562728053
100.36659429127
100.365826546056
100.36521750014
100.364759757353
100.364515248005
100.364557597029
100.365044341523
100.366200317967
100.368019547272
100.369977221344
100.371527980935
100.372136143676
100.372082803144
100.372125697951
100.372115964291
100.372129407555
100.372169635182
100.372176768332
100.372230174236
100.372389036501
100.372639362883
100.372839612137
100.372893469222
100.37296844825
100.372891628567
100.37263303626
100.37248790053
100.372380203835
100.372401701341
100.372603851235
100.372485013374
100.372262982774
100.372160018857
100.372112363443
100.372083267231
100.372081632364
100.372058090967
100.372049763359
100.372066646316
100.372051114877
100.371928743659
100.371990368139
100.372021268498
100.37201687112
100.372019674998
100.372039398252
100.372062087128
100.372077645293
100.372120888667
100.372331684041
100.372049040379
100.372112456698
100.372112193332
100.371951772318
100.37191156465
100.371975094924
100.37198660996
100.371955075995
100.371956134892
100.37194973108
100.371950849033
100.371905645416
100.371881854848
100.371617726882
100.370919870611
100.371588189937
100.371863504816
100.371864971485
100.371895672577
100.371881992129
100.371899535696
100.371886677567
100.371909192178
100.371844154015
100.371940709
100.372044212503
100.372048335143
100.371891860537
100.371877448828
100.371836387064
100.371726619459
100.371593740026
100.371644085943
100.37157215217
100.371769311841
100.371835451911
100.371840138533
100.371820520112
100.371847259047
100.371806386193
100.371843888491
100.371825383658
100.371847697516
100.371816235611
100.371810385647
100.371536916049
100.370661173807
100.371504201825
100.371781741376
100.37177824429
100.371803395086
100.371777547607
100.371785777496
100.371784835946
100.371777386946
100.371749647105
100.371762783188
100.37170487946
100.371512744408
100.371528976689
100.371663712863
100.371547637652
100.371667780582
100.371570385839
100.371699715471
100.371693893622
100.371740048786
100.371763256826
100.371732819904
100.371765071831
100.371756927665
100.371753254227
100.371740025591
100.371729954953
100.371467276421
100.370589710058
100.371472197494
100.371717116196
100.371716973044
100.371724333608
100.37173229993
100.371709246475
100.37171353352
100.371677903222
100.371622991107
100.371657025072
100.371623876995
100.37158010396
100.37149791305
100.371241582457
100.371081371731
100.371016514654
100.371349660603
100.371221033121
100.371474374289
100.371571905245
100.37161189143
100.371651432878
100.371688719419
100.371685674588
100.371708248703
100.371697783082
100.371690929905
100.371692166518
100.371469530342
100.370546659635
100.371574032098
100.371675646511
100.371678850617
100.371669664375
100.371681199884
100.371648346915
100.371693636809
100.37167954192
100.371593229059
100.371589372197
100.371526572143
100.371381053655
100.371256037263
100.371491064101
100.371569306509
100.371617855378
100.37159893276
100.371534483407
100.371357404621
100.371173547915
100.370735421954
100.370311960711
100.370758117877
100.370797802587
100.371254027812
100.37113866298
100.371417626739
100.371571238714
100.371621588647
100.371684410442
100.371681527494
100.371642741248
100.371623267392
100.371682087982
100.371687165875
100.371643709068
100.37164658803
100.371592709467
100.371323993561
100.370215301003
100.368620769879
100.370570471132
100.371461720541
100.371575115097
100.371630415603
100.371634324128
100.371676100684
100.371656706659
100.371613199478
100.371723560457
100.371726805972
100.371619616326
100.371635039367
100.37158544771
100.371424541148
100.371272970046
100.371555810013
100.371651255491
100.371693062271
100.37169746856
100.371676498687
100.371541573766
100.371242339661
100.370870704856
100.371161359253
100.371485557539
100.3713518114
100.37165693562
100.371738261815
100.371752066174
100.371654411728
100.371738953678
100.371731686174
100.371579620946
100.37157080044
100.371645086791
100.371600387173
100.371609540631
100.371556446648
100.371484357828
100.370727334527
100.368997826871
100.371089950117
100.371559977961
100.371566793325
100.371583602311
100.371667745572
100.371648271183
100.371565415713
100.371549822692
100.371500550091
100.371319404639
100.37061973477
100.369055903949
100.367659081333
100.369840217226
100.371010870655
100.371390589424
100.371495168449
100.371540028824
100.371566713617
100.371596186998
100.371705333026
100.371730617044
100.371665915051
100.371758411873
100.371748760066
100.371644008808
100.37152652957
100.371736698618
100.371781377638
100.371757294751
100.371727468849
100.371771832665
100.371657973325
100.37139921102
100.370974769939
100.37147342813
100.371580147856
100.371766032579
100.371703319221
100.371794919487
100.371744745307
100.371612971607
100.371697148583
100.371714213876
100.371549751325
100.371541421173
100.371575549787
100.371599406878
100.371505442509
100.37147638934
100.371405735874
100.371196412725
100.370191100657
100.368622906331
100.370859531144
100.371377579788
100.371386019338
100.371441961069
100.371474945681
100.371553621472
100.371481899398
100.3714895864
100.371447860549
100.371678762963
100.371645513424
100.371678099684
100.371762658241
100.371718704698
100.371497370441
100.371005353581
100.371492871559
100.371547597718
100.371713530088
100.371691569603
100.37173062531
100.371654621375
100.371521588357
100.371590866963
100.371461785267
100.37144587037
100.371374504222
100.371394775953
100.371339457165
100.371288724894
100.371202513848
100.370612124824
100.368979585688
100.368110769258
100.370153585821
100.371071601894
100.371221776857
100.371264932726
100.371320452455
100.371297846267
100.371376728223
100.371360008839
100.371560416914
100.371534821179
100.371571390567
100.371662989054
100.371661238459
100.371423181962
100.370996271413
100.371427432513
100.371632503146
100.371583269831
100.371581124938
100.371614271411
100.37152964685
100.371430300657
100.371467738228
100.371371902872
100.371332695143
100.371273260542
100.371227992528
100.371246687226
100.371198016834
100.371179447475
100.370597952783
100.369640981665
100.371073705801
100.371171913771
100.371174554577
100.371163646111
100.371217391135
100.371246273864
100.371245441992
100.37143567957
100.371379880658
100.37135354182
100.371308166498
100.371421604885
100.371516381896
100.371554941079
100.37138713222
100.370915758946
100.371266289575
100.371417156258
100.371423549548
100.371356217987
100.371310511324
100.371378511295
100.371338086169
100.371159072268
100.370659670956
100.371110673837
100.371091338214
100.37130378794
100.371334418584
100.371331394367
100.37129173755
100.371251734175
100.371294187137
100.371337496836
100.371225704215
100.371205102407
100.371222028004
100.37120069613
100.371188322725
100.371166234884
100.371143270064
100.371094209285
100.371152805599
100.370187644551
100.369741992068
100.371054305556
100.371132154879
100.371129362668
100.371140403172
100.371167025069
100.371196706001
100.371208093681
100.371176659141
100.371195950028
100.371203940098
100.371289715281
100.371260276995
100.371257447164
100.371240137877
100.37125008815
100.371317551409
100.371307392789
100.371216852189
100.370739435743
100.371194148248
100.371299140377
100.371305467664
100.371235279383
100.371221031586
100.37132195673
100.371333013602
100.371278846649
100.370897364159
100.371278532066
100.371375810126
100.371405652313
100.371466336924
100.371345941958
100.371233435718
100.371255056201
100.371242231754
100.371265806323
100.371207103996
100.371198810072
100.3711780828
100.371210761747
100.371165689214
100.371161074751
100.371128351248
100.371055635005
100.371126385362
100.37023222921
100.370027184112
100.371006596888
100.371122216173
100.371115208137
100.371130647309
100.37118056952
100.371180456137
100.371195449712
100.371212769876
100.371198128258
100.371195172329
100.371183086063
100.371179844288
100.371141833814
100.37089721869
100.371029215497
100.371158008852
100.371154011815
100.371228700122
100.371215322563
100.371224856023
100.371236377984
100.371214759948
100.371268876224
100.371236066864
100.371270195112
100.371272095869
100.371253511654
100.371386074137
100.371510514851
100.371388998719
100.371382449098
100.371352003439
100.37122219674
100.371267045987
100.371419278861
100.371476091669
100.371477153858
100.371263730774
100.371390138334
100.371423074601
100.371385319027
100.371253380911
100.371293570085
100.371255900886
100.371244187824
100.371219016026
100.371263195326
100.371243722569
100.371256438342
100.371249417642
100.371261155793
100.371268984688
100.370870380206
100.371283190466
100.371269307481
100.371250810817
100.371314720342
100.37128391549
100.37128315109
100.371294514803
100.371257785882
100.371284838445
100.371301932338
100.371294823614
100.371425781897
100.37147701616
100.371510182441
100.371238687503
100.371397357112
100.371421573976
100.371384693883
100.371277490639
100.3712999962
100.371280362056
100.371285478478
100.371269697267
100.371307078986
100.371295193418
100.371321523559
100.371331892071
100.3713751296
100.371370719581
100.371032564933
100.37145955206
100.371345044997
100.371352584979
100.371377702141
100.371334441394
100.371321977036
100.371313642167
100.371307826632
100.371306738853
100.371341703589
100.371325929504
100.371432498037
100.371485405328
100.37154533051
100.37129339843
100.371473913315
100.371466780814
100.371425577679
100.371317679895
100.371328297841
100.371363075263
100.37135384417
100.371462161218
100.37151406203
100.371614499432
100.371402459945
100.371539582439
100.371515789618
100.371452965477
100.371333409336
100.371355831294
100.371342621417
100.371316856006
100.371339755494
100.371344142758
100.371347990524
100.371371397608
100.371384307238
100.371437952501
100.371443028467
100.371205165498
100.371377994421
100.371398576574
100.371444460912
100.371427825757
100.371403375817
100.371385693747
100.371370864408
100.371364217389
100.371377294092
100.371384683809
100.371372517663
100.371518061301
100.371609296188
100.371740075268
100.371575838732
100.371671372586
100.371605780812
100.371513461067
100.371369544908
100.371385257243
100.371425192038
100.371416451934
100.371582174797
100.371691275226
100.371829415191
100.371682779483
100.37174567582
100.371670333461
100.37158707979
100.371409472305
100.371425686029
100.371421193655
100.371382157752
100.371405250517
100.3714165503
100.371448417443
100.371453059684
100.371456232521
100.371494315052
100.371507127243
100.371455527256
100.371459686928
100.371532945048
100.371443072828
100.371518608077
100.370771518798
100.371071157885
100.369916083805
100.370544954322
100.369100836092
100.367609228195
100.368467480872
100.367136879046
100.368149682385
100.366972896954
100.366202201861
100.367087009952
100.366419500747
100.366062480957
100.367138136744
100.366929294642
100.366892526419
100.368498283729
100.368657062146
100.368861210484
100.369147902748
100.369509710902
100.371111949181
100.370813860668
100.371236880835
100.371609267679
100.371874216889
100.372323727551
100.372175338967
100.372237137855
100.372289963986
100.372336054472
100.372371620519
100.372433003331
100.372542361937
100.372807921386
100.373057803166
100.373283607445
100.373352395773
100.373357330642
100.373173526831
100.373063560918
100.372829393504
100.372518100919
100.372406451467
100.372466994443
100.372584305717
100.372866218013
100.372591548828
100.37242512507
100.372327557245
100.372100424844
100.371844426914
100.371481601282
100.371119188894
100.371243802128
100.371300886012
100.3711569796
100.370911743969
100.371003256437
100.371124597276
100.371388122407
100.371561056921
100.37146494667
100.371503861159
100.371605187522
100.371553368916
100.371594432439
100.371580684617
100.371874243041
100.371806432963
100.371844056202
100.37188653808
100.371933248687
100.372010200869
100.372064415399
100.372192775345
100.372226774944
100.372276090993
100.372313975422
100.372364979052
100.372556217231
100.372841771084
100.373075094073
100.373165450928
100.37317699216
100.37296000485
100.372681097283
100.3722889814
100.372184886373
100.372228026514
100.372233915499
100.372323911684
100.372537317571
100.372679081436
100.372948471847
100.373195359947
100.373415717523
100.37350530959
100.373513269692
100.373373617651
100.373117765209
100.372832166674
100.372685178515
100.37223316861
100.371783227904
100.371327398028
100.371441484644
100.371597461942
100.371531679523
100.371404884621
100.371301548314
100.370524010532
100.370039452634
100.369910593622
100.369836406155
100.369652159222
100.369784304958
100.370188730518
100.37038187163
100.370435493041
100.37007039831
100.370444758066
100.37067334998
100.370755441359
100.370497527725
100.371556328374
100.37190395674
100.371930158851
100.372008216961
100.372012910174
100.372113702468
100.372137761452
100.372153350957
100.372171400893
100.372107203233
100.372183809845
100.37221685342
100.372295225863
100.372375037136
100.372418966279
100.372450549563
100.372553536918
100.372646587799
100.372801016094
100.373069833206
100.373342515251
100.373589292297
100.373664730394
100.373666817753
100.373543687703
100.373287540301
100.372986770094
100.372536309495
100.372084985516
100.371622369732
100.371469017319
100.370765068287
100.370418625927
100.370270689296
100.370156153613
100.370037984128
100.369800059186
100.369826958919
100.370210345312
100.370457227628
100.370502428823
100.370628725971
100.370288055311
100.370674117248
100.370923195505
100.370698589956
100.371314878698
100.371813843549
100.372114328741
100.3722782475
100.372269846627
100.372253289021
100.372361549843
100.372459217546
100.372512489341
100.372611430574
100.372654962592
100.372742041448
100.372886784926
100.373179007591
100.373466748212
100.373702849281
100.373786448077
100.37379224301
100.373662758364
100.373413215455
100.373097777116
100.372666907599
100.372217761575
100.371742498275
100.371085865226
100.370806548272
100.370641806832
100.370328702309
100.370105996105
100.370023291018
100.36983162642
100.36958695434
100.369832045883
100.370072475721
100.369775244666
100.369661014313
100.36943334857
100.369142631065
100.368874925119
100.368674608291
100.368532866451
100.368454418538
100.36873074075
100.368968075844
100.369164416126
100.369414564022
100.369610219605
100.369250648078
100.36933493673
100.369593754125
100.369661807619
100.370469493325
100.371019173685
100.371708067487
100.37200829291
100.372088278043
100.372233843876
100.372257046087
100.372447965853
100.372462374397
100.37235951097
100.372433526002
100.372546043876
100.372632029556
100.372700044517
100.372736405032
100.372836087832
100.373001550476
100.373314415369
100.37360506074
100.373833101278
100.373916994771
100.373921295466
100.373797914555
100.373545793171
100.373236985027
100.372793727973
100.372358820309
100.371902443562
100.371250739456
100.370985601494
100.370731846146
100.370546523962
100.370515941391
100.370250840531
100.37010564181
100.370382109839
100.370114762919
100.369861998867
100.369615870543
100.369278741477
100.368965261641
100.368498498456
100.368764586329
100.369174328244
100.369470783792
100.369619773657
100.369858716553
100.369850288101
100.369697042206
100.368982766839
100.369272073622
100.369407476466
100.369409069794
100.369564118797
100.369158250759
100.368677124339
100.368059125754
100.367450379741
100.366273427454
100.366190014868
100.366750484644
100.367392888172
100.367943008617
100.368496856095
100.369031413701
100.369907741036
100.36759918145
100.367007375054
100.366641188262
100.366488473904
100.366294915478
100.366195010611
100.365320183542
100.364195850498
100.361783170805
100.36517601799
100.366481993934
100.365594862333
100.364291892199
100.363150278333
100.361401912733
100.359910003441
100.360814164559
100.361801393378
100.363690735194
100.36365189107
100.364240145783
100.365279192131
100.366380040747
100.367019755906
100.367732112683
100.36832470478
100.36894932014
100.369469619956
100.36997583726
100.369552567496
100.370292859571
100.368401172344
100.372855955884
100.372897454022
100.372703329845
100.372452543104
100.371984127392
100.371161131978
100.369871231023
100.36843686899
100.36751874332
100.366249708379
100.367701519616
100.367606227763
100.365827281978
100.363126915456
100.361669016958
100.360798667728
100.353352264501
100.355531731879
100.356111637381
100.35749462404
100.359811965373
100.361460637292
100.365819006028
100.367927949273
100.370179397101
100.37023389684
100.370557419122
100.368796419982
100.36921833691
100.369644984342
100.370169775171
100.370481637675
100.370991509268
100.372181543061
100.372443983061
100.372565623943
100.372348521576
100.372509356612
100.372592601799
100.372722717803
100.372793682198
100.3728256866
100.372943755103
100.373095635829
100.373370352887
100.373661556067
100.373893161207
100.373986083472
100.373996370418
100.37388406144
100.373619427807
100.373327233801
100.372855001942
100.372423994289
100.372009798663
100.37138382399
100.371139513328
100.370887720161
100.370760438259
100.370721507779
100.370606921832
100.370843639498
100.370644926055
100.370679564822
100.370773006091
100.37089616146
100.370686752888
100.370507970656
100.370165247736
100.370299716051
100.370536389753
100.370420952159
100.370151792451
100.369784065138
100.370188504187
100.369799407232
100.369432347607
100.369081076802
100.368696117425
100.36827139967
100.367879001727
100.367228556975
100.367582618836
100.368087196339
100.368507815261
100.368774735181
100.369120840785
100.369474976002
100.369455795614
100.369240075405
100.368761242132
100.368306845663
100.368103974998
100.368516011048
100.36859482428
100.370008541743
100.370946913674
100.371305850084
100.371624132913
100.372591758486
100.372709256654
100.372653262343
100.372473803927
100.37267259637
100.372795107762
100.372861083058
100.372906036292
100.373039916883
100.373174142083
100.373401633489
100.373716839023
100.373950108291
100.374044179321
100.374051791361
100.373954876313
100.373699914023
100.373412097388
100.372956982478
100.372578505781
100.372131491407
100.371584394524