/*--------------------------------*- C++ -*----------------------------------*\
| =========                 |                                                 |
| \\      /  F ield         | OpenFOAM: The Open Source CFD Toolbox           |
|  \\    /   O peration     | Version:  v1612+                                |
|   \\  /    A nd           | Web:      www.OpenFOAM.com                      |
|    \\/     M anipulation  |                                                 |
\*---------------------------------------------------------------------------*/
FoamFile
{
    version     2.0;
    format      ascii;
    class       volScalarField;
    location    "1.7";
    object      p;
}
// * * * * * * * * * * * * * * * * * * * * * * * * * * * * * * * * * * * * * //

dimensions      [0 2 -2 0 0 0 0];

internalField   nonuniform List<scalar> 
74874
(
100.129023270543
100.131407454203
100.131880825124
100.130470613889
100.135985811085
100.136572201386
100.13341433958
100.135022670809
100.137539694465
100.137613346056
100.135500877997
100.133964778792
100.137248460944
100.136698444142
100.137709819698
100.137893225777
100.137274597311
100.134135886806
100.131226880901
100.130657300588
100.132131716036
100.133448863946
100.131930322711
100.131580670937
100.137021908961
100.13715782746
100.132557138872
100.132822762285
100.133985508873
100.132164193015
100.13230170028
100.133799875725
100.132804666244
100.132504499404
100.137090714507
100.136592897058
100.13149083247
100.131907014862
100.133349034501
100.131769750051
100.130338693133
100.130864147277
100.133770669662
100.136917038294
100.137364574322
100.137122446349
100.130979393186
100.13023903315
100.129844981069
100.12927885862
100.128266099569
100.128271409914
100.127556469547
100.127904130986
100.128171105958
100.128727892946
100.129928643856
100.129417122407
100.127809510948
100.127522191199
100.127255132312
100.126802031218
100.126846386534
100.127384271572
100.127545265019
100.127880948476
100.129433935828
100.129967660852
100.128843453072
100.128326587973
100.128194555894
100.127856958151
100.128518673939
100.12852863063
100.129516928145
100.130133679852
100.130610857576
100.131389258485
100.13093342892
100.132503754144
100.132112230754
100.133254805427
100.133514176484
100.133299043533
100.132731901903
100.132250669178
100.131753873783
100.128597744464
100.126922720501
100.128953649773
100.127915035592
100.124223062094
100.125172009361
100.127783966918
100.12748155948
100.125738107788
100.123979756723
100.125562083997
100.127124791408
100.12647532231
100.125799289811
100.125383260172
100.123563158771
100.122498385317
100.12369508599
100.123639519722
100.122377967629
100.123516224395
100.125496074414
100.125978927586
100.126325391819
100.12733361948
100.126106579251
100.124459905728
100.12610272927
100.12774172828
100.128018519965
100.12534804675
100.124440535825
100.128324157393
100.129377994184
100.127438598998
100.129417756747
100.132979615851
100.133203142855
100.130791882143
100.130555784482
100.124136643724
100.132287103522
100.131880448249
100.126449950234
100.123975808438
100.128613700956
100.128986302743
100.123315463698
100.123549332327
100.126448699686
100.124855367122
100.123682807644
100.121687229957
100.124574006641
100.127149828911
100.123389224251
100.122832350092
100.125071210653
100.121446232597
100.119098420059
100.121282889092
100.121248058809
100.119036565775
100.121418628877
100.125182428625
100.123204689903
100.124052913996
100.128114847744
100.125557515137
100.122265546649
100.124098822972
100.125159522056
100.126734194869
100.123759021826
100.12347813705
100.129561546809
100.129084295243
100.12467650386
100.127706770091
100.134498042712
100.135376309373
100.125072075796
100.15220761058
100.150165612827
100.122746222906
100.122609368297
100.127936837086
100.117477884291
100.11901141206
100.130063911417
100.126437241743
100.123584834712
100.12351498505
100.128420976476
100.117994574604
100.119139682101
100.119397627183
100.119149858243
100.125973496707
100.122237782907
100.122202095059
100.125835935027
100.119278428585
100.119546765352
100.119315482627
100.117907313751
100.116358109099
100.119299302471
100.117056057565
100.108417401515
100.111020300737
100.082794318289
100.078906163265
100.079269641008
100.085039298263
100.116265750949
100.11058321833
100.093539587175
100.086549802662
100.080229088536
100.080983417785
100.085959817404
100.082942382913
100.083908127042
100.087205121225
100.087192477635
100.083859583978
100.082925830244
100.085595718579
100.084776266224
100.078571479629
100.0773009447
100.081829687435
100.079872246711
100.079703364751
100.078703123853
100.078728559808
100.084953695007
100.084159043766
100.084474521791
100.084860102562
100.080125992928
100.080698991166
100.08204691768
100.082022399924
100.080680746247
100.079915831973
100.080906925702
100.080132510052
100.078651328689
100.07868409548
100.085479564027
100.084541913729
100.084204045712
100.084971888958
100.086250268418
100.086193621711
100.08557477251
100.085753529506
100.086007343601
100.086040099099
100.085133097028
100.084850947471
100.084842059189
100.085023725186
100.084664156236
100.084434523392
100.084092207077
100.085016253843
100.086126466441
100.086436353947
100.085692038153
100.08558716237
100.08386169231
100.084150058507
100.084130926497
100.083925345184
100.084079157102
100.08407854468
100.084107758654
100.083971269229
100.085688794768
100.085662334911
100.085905423641
100.085827055517
100.085661918397
100.085501177248
100.083796399144
100.083981882367
100.084122797732
100.083837986353
100.081515839274
100.081567574913
100.081680395964
100.081708528334
100.081623331503
100.081740413519
100.081690716883
100.081740397937
100.081691982659
100.081677609106
100.083951114882
100.084023987265
100.083953937262
100.083957494119
100.081632692181
100.081481948156
100.081562949342
100.081577834786
100.079577749211
100.079566214671
100.079618411076
100.079677641742
100.079736878538
100.079661939352
100.079748845317
100.079717363557
100.079765973586
100.079730905281
100.079719017713
100.079740086052
100.081701828477
100.081606616712
100.079651526937
100.079668785501
100.079557417567
100.079629039652
100.077893741178
100.077852585545
100.077801025051
100.077832842714
100.077876143722
100.077954508559
100.077898000615
100.077978787661
100.077957550313
100.078005715158
100.077986843835
100.077982218541
100.077991919178
100.077906866696
100.077921577207
100.07784271139
100.076039778832
100.076042213161
100.076000027091
100.075899370245
100.075917306193
100.075963031054
100.076066806799
100.076037306495
100.076129241748
100.076109112402
100.076178792857
100.076191802585
100.076197687027
100.076193639505
100.076094724681
100.076106493374
100.074026555886
100.07395000405
100.073918503857
100.073866995629
100.07362092608
100.073632989654
100.073781019366
100.07389207068
100.073871550703
100.07399094182
100.073992321068
100.074097373958
100.074150705059
100.074205014383
100.074189556775
100.074072212798
100.071503456706
100.071421240411
100.071307111446
100.071281868249
100.071221480691
100.070626104279
100.070592152695
100.0710201918
100.071123225822
100.071137674595
100.07129103214
100.071360708096
100.071553293223
100.071616842768
100.071695810654
100.07163594156
100.067815688992
100.06759751566
100.067614088368
100.067409395756
100.067215668582
100.067416871985
100.066182398636
100.066039401356
100.066969611534
100.066851168412
100.067013117427
100.067281157648
100.067325029266
100.067689896945
100.067870701443
100.067928221659
100.06186893031
100.061717458037
100.061203315551
100.061473934564
100.061345120336
100.060463116004
100.06134865041
100.058826846167
100.058702677926
100.060663986117
100.059768427432
100.06048602555
100.060758076106
100.060757415986
100.061299739103
100.061689401865
100.039386424917
100.03959914226
100.036333017801
100.036008509771
100.039651135564
100.040235764832
100.035476970282
100.035948773315
100.035866821049
100.035774855146
100.035324822461
100.034225338794
100.03906719226
100.038734062928
100.035484256438
100.035923867689
100.041750230207
100.044551306173
100.044630035691
100.042487835622
100.042266803057
100.0439066829
100.046128787561
100.039918557955
100.026749336688
100.069129121099
100.104775059543
100.10445159116
100.067989199477
100.035189269467
100.035404410026
100.174024863418
100.298542292776
100.224002803264
100.222034594566
100.175223985681
100.159860230207
100.145245325742
100.038913863989
100.045452165553
100.043645044662
100.04166522696
100.15103688515
100.151693380576
100.190483623806
100.129428794281
100.130165872479
100.191852699097
100.152961868962
100.151772509427
100.188146372468
100.125098946902
100.122869925134
100.178991214003
100.145579344619
100.162784426244
100.177809899287
100.297821485898
100.367883700658
100.346225598186
100.342943752581
100.361714812811
100.340026084458
100.293585751892
100.459015828909
100.485255691748
100.49232339641
100.526215661594
100.596372497926
100.600585362225
100.521355265111
100.454375933087
100.387953552287
100.35004195693
100.374036605459
100.372566924797
100.369499705946
100.369593854662
100.370508711059
100.371490487925
100.372759149585
100.374574299278
100.376928657159
100.379668608809
100.382532217038
100.385067471577
100.386677744139
100.385450685501
100.383753788839
100.381747226921
100.379555585655
100.377348064651
100.375134214328
100.372909030953
100.370806056027
100.36897406107
100.367490842688
100.366346981615
100.365451556814
100.364718525159
100.364121940929
100.36365653338
100.363329327861
100.363161231746
100.363206752759
100.363556974001
100.364481399815
100.366149456837
100.3681118419
100.370008296527
100.371756791472
100.372835860683
100.372747921964
100.372697374502
100.372071152874
100.371515483183
100.3696780358
100.367743982088
100.365918116801
100.364461893337
100.363657057806
100.363310653898
100.363218472069
100.363332285191
100.363623669791
100.364068990636
100.364645610371
100.365348802203
100.366204718185
100.367282503699
100.368669844176
100.370384727961
100.372369389556
100.374480741967
100.376563054961
100.378582344638
100.380528664967
100.382282237963
100.383786123848
100.384885529753
100.385427013184
100.387283743198
100.388544684148
100.38790043758
100.386595420019
100.384773092694
100.382595027333
100.380222150611
100.377847064472
100.375511194946
100.373218335943
100.371056386285
100.369159919026
100.367609296205
100.366410446101
100.365480586574
100.364737732777
100.364143865963
100.363694274135
100.363369195038
100.363169035574
100.36318170949
100.363573110213
100.364614626049
100.366455991261
100.368512064247
100.370404495837
100.372054934795
100.373039498837
100.37294365661
100.373253980249
100.373487274122
100.373480684157
100.373664071204
100.373568736102
100.373743615213
100.373650809597
100.373839217798
100.373788248097
100.373850471614
100.373710044707
100.373659276695
100.373528340504
100.373368554705
100.373374292452
100.37329674614
100.373550331496
100.373708843921
100.37365993315
100.373717447054
100.373558458443
100.373644931605
100.373478157396
100.373577729058
100.373395071299
100.373395427177
100.373167714262
100.373045909796
100.373289097105
100.373299874774
100.373477090214
100.3733879016
100.373541543993
100.373485416038
100.373613670539
100.373539132027
100.373532315572
100.373361910391
100.373333057821
100.373254140239
100.373301013723
100.373206077514
100.373341679449
100.373447556538
100.373467504611
100.373363463897
100.373443305466
100.373300516747
100.373385417001
100.373212915679
100.37319488354
100.372933208896
100.372778298846
100.373032710874
100.373078581351
100.373255222267
100.37321036859
100.373303045768
100.373346009298
100.373238485257
100.373435857133
100.373502427237
100.373566850264
100.373665079838
100.373777481104
100.373904895162
100.373772830092
100.373988406923
100.373946713732
100.374028451441
100.373892054788
100.373860436076
100.373681486687
100.373407547051
100.373113829853
100.372919770683
100.372741998908
100.372549019064
100.372387831489
100.372441402537
100.372564872661
100.372807733063
100.372992236656
100.373186022887
100.373486014461
100.373306417682
100.373132577381
100.373042425567
100.373140447593
100.373078314709
100.372759218928
100.372505907652
100.372402517412
100.372278172552
100.372417055359
100.37245098661
100.37267792217
100.372995452697
100.373108337911
100.373191684066
100.373295749094
100.373357922562
100.373452920161
100.373536867396
100.373615428579
100.373723746443
100.373860492003
100.374006761552
100.374066953872
100.374157824924
100.374000161516
100.373990393675
100.373763184821
100.373585149901
100.373326254671
100.372908642741
100.372480811084
100.372107264211
100.371961958067
100.371715441667
100.371708928985
100.372010797584
100.372353452225
100.372748227351
100.372504708138
100.372184375347
100.371879276465
100.371669696401
100.371464890594
100.371240220314
100.371071486551
100.371218989714
100.371400047625
100.371698010083
100.371893294837
100.371991012128
100.371744597812
100.371905743826
100.372303711763
100.372279546949
100.372676466377
100.372883619433
100.373209733629
100.373370425034
100.373398331002
100.373484319978
100.373572458558
100.373666679532
100.373580807845
100.373772593699
100.373671456766
100.373869975432
100.373984557651
100.373889716985
100.374108701262
100.374252756703
100.374252743299
100.374358933573
100.37427285915
100.374068510487
100.374095239295
100.37405611917
100.37420958831
100.374149583956
100.374256554319
100.374152566695
100.374167316462
100.374007498918
100.374119743173
100.374369284558
100.374366638438
100.374480712921
100.37444695799
100.374303982932
100.374250768571
100.373831686571
100.373660541623
100.373519825851
100.373151358154
100.372695497974
100.37230474259
100.371704467273
100.371476087782
100.371226843919
100.371016947869
100.370818903941
100.370624172755
100.370332342214
100.370021304774
100.369927917726
100.37024866241
100.370647168452
100.370887046851
100.371085297963
100.371293577116
100.371475512825
100.37120456903
100.371367248271
100.371196056268
100.371521895659
100.372044854825
100.373176296119
100.373465079856
100.373464744612
100.37369622741
100.373687160385
100.37387672932
100.373773184497
100.373890402339
100.3741010591
100.374209910521
100.37433145991
100.374251121204
100.374505946076
100.374509756296
100.374625976886
100.374583295574
100.37442712673
100.374373857134
100.374000565509
100.373813480569
100.37345283372
100.373043609673
100.372669324062
100.37248396645
100.371906149821
100.371702238042
100.371514679021
100.371381884305
100.371380870323
100.371089472692
100.37081960964
100.370627580495
100.370283569625
100.370498667529
100.370821462992
100.371101138466
100.371263852597
100.370997357057
100.37073164292
100.370367142003
100.37037264839
100.369957557726
100.369560510451
100.369243659012
100.368992601648
100.368784792933
100.369041712278
100.369395648845
100.369728909686
100.370073984609
100.369809587061
100.369984869167
100.370119058585
100.370363387566
100.370476569234
100.371100115058
100.371714640068
100.372942153323
100.373250577486
100.373371350099
100.373368696178
100.373594538825
100.373611341695
100.373709686472
100.37383362735
100.373817933189
100.373803227877
100.373997713208
100.374105842448
100.373999843543
100.374110954933
100.374215871011
100.374429422607
100.374357493896
100.374608485353
100.374611036347
100.374734177391
100.374686600193
100.374582239695
100.37447929185
100.374170889724
100.373954783918
100.373550457538
100.373130932031
100.372789318607
100.372249367095
100.372096958031
100.371928973197
100.371758202131
100.37164229372
100.37166261553
100.371537718054
100.371765452201
100.371474477756
100.371174857199
100.370875601193
100.370547027171
100.370187483129
100.369779169106
100.369382261226
100.368872847214
100.36918268547
100.369674632358
100.370122824066
100.370369126499
100.370640763461
100.370942778724
100.371243671275
100.371252004084
100.37110749593
100.370729763451
100.370005256021
100.370023849886
100.369862557994
100.369276225959
100.368764901106
100.367442510801
100.36791638026
100.368686720611
100.369405482184
100.370092042587
100.370385067238
100.37027996557
100.369860773044
100.369173144855
100.368409505791
100.367344485717
100.366273236369
100.365569365689
100.363474832812
100.362040037489
100.363811237956
100.365031704396
100.36599426984
100.36716267536
100.366994617304
100.365596125309
100.364650709854
100.363154078971
100.361461383578
100.360579767961
100.360474018261
100.361763603275
100.36361979197
100.364946164551
100.365625834542
100.366703118775
100.367317912597
100.368163695436
100.369202462854
100.369936549039
100.370665577364
100.371287683764
100.370643582072
100.370900153111
100.370691578351
100.371716799891
100.371234568782
100.370693844987
100.370104537417
100.369453453537
100.368744948718
100.367904570682
100.366629222221
100.365950703708
100.364702106481
100.364587247417
100.364156907885
100.362599261965
100.361951059114
100.360974596849
100.355716832056
100.356920369594
100.357076035707
100.359183795285
100.36013649516
100.3638495383
100.365009581628
100.368013631444
100.368746849124
100.37083059457
100.370015509193
100.368903217709
100.368839409424
100.368836030175
100.368901703947
100.369324161584
100.368578148223
100.366965901601
100.366596123513
100.366526037907
100.366636959883
100.368726365989
100.370757799068
100.370719878161
100.371529704309
100.372064635651
100.372090560078
100.372510688046
100.37226079425
100.372446577057
100.372514822317
100.372592183943
100.372538232655
100.372436035233
100.372255469439
100.371730845281
100.371487656833
100.371693783969
100.371803790601
100.371726476684
100.371936358994
100.371934454378
100.372047740617
100.372370182378
100.372408535325
100.372589607413
100.372257712677
100.372491038753
100.372552675862
100.372178287314
100.372385867608
100.372043514189
100.372021328971
100.371520160275
100.371392935049
100.371914434955
100.371957284587
100.37226446695
100.372129406637
100.372430365768
100.372219494406
100.372456359353
100.372279400479
100.372245563641
100.372154954374
100.372240259038
100.372346051251
100.372220392625
100.37212251016
100.371999666991
100.371673648505
100.371193772958
100.370763259078
100.371113863721
100.371231870411
100.371532090737
100.371500139165
100.37190637278
100.37202229045
100.37218320016
100.371886221897
100.372115777231
100.372212311504
100.372007217271
100.372123256274
100.371729425689
100.37180442623
100.371528636587
100.370870599183
100.370652530119
100.369822484201
100.369986534919
100.370092083809
100.371031152566
100.371529298015
100.371567874568
100.371970934144
100.371726958675
100.372128618282
100.372041311262
100.371832124473
100.372052475684
100.37188242672
100.371681279239
100.371553102156
100.371754653871
100.371838538727
100.371955983965
100.371848558404
100.371749332508
100.37155333992
100.371210044128
100.370560819216
100.369829023721
100.370418746033
100.370591048376
100.371001744323
100.371035504438
100.371464370082
100.371661530899
100.37178822031
100.371491533277
100.371779871297
100.371827428026
100.371687643524
100.371732054533
100.371875683659
100.371457043751
100.371519589636
100.371130870945
100.370348090476
100.37041269257
100.371188521326
100.371229470059
100.371786549154
100.371532024487
100.371663183362
100.371738953061
100.371742418602
100.371795452165
100.371833533324
100.371999508553
100.370334105529
100.37131271137
100.371370715345
100.371627644281
100.372139094974
100.372295743664
100.372293616107
100.372567278351
100.372527130329
100.372642476507
100.372740868657
100.372607458868
100.372705980818
100.372529627827
100.372520178831
100.372617470231
100.372663486088
100.372706771934
100.372816832532
100.372840117912
100.372817043848
100.372504482892
100.372413878775
100.37251720978
100.372341825607
100.371957592788
100.371636470637
100.370913981962
100.370271987848
100.369661168453
100.36995160508
100.370211467452
100.37018752839
100.370146945258
100.370570060824
100.370684318197
100.370813865471
100.370753737859
100.370374132041
100.370758604172
100.371052954853
100.37135307991
100.371789870574
100.372084038937
100.372240295778
100.37229051147
100.372343779747
100.372374664295
100.372435568383
100.372669701209
100.372610649428
100.372826962401
100.3727210502
100.372915456806
100.373077381339
100.372965097545
100.372928138549
100.372621716861
100.372488671555
100.372210573976
100.371748878498
100.3712638109
100.37120420539
100.371435594412
100.371519245846
100.37212972788
100.371721082314
100.371884832758
100.372272382757
100.372418570628
100.372648490515
100.372665621979
100.372785235295
100.372689737647
100.372976194553
100.372846895286
100.372884297784
100.37315570533
100.373056413101
100.37301050649
100.37283351679
100.372662817624
100.37292029893
100.373007645686
100.373111569649
100.373194596845
100.373230644079
100.373187465554
100.373074887167
100.37310469866
100.372875110289
100.372856983517
100.372695773023
100.372330483574
100.372326877957
100.371796205062
100.371359342233
100.371274183198
100.370983449605
100.370886576465
100.370841946575
100.37077047856
100.371659899232
100.372197542426
100.372269188579
100.372493404193
100.372510011631
100.372794589141
100.372946836677
100.372732492864
100.373117633873
100.373092206597
100.373204064204
100.373279100638
100.373371489851
100.373439455618
100.373525856061
100.373605812846
100.373721423344
100.373816637421
100.373941259648
100.374043262976
100.374168008901
100.374266453502
100.374375379372
100.374318557658
100.374518855972
100.37445117458
100.374695776061
100.374709602621
100.374844884895
100.374767663639
100.374735155281
100.374630431232
100.374607983012
100.374390526477
100.374105467334
100.373670707658
100.373265816498
100.372947992059
100.372434787762
100.37231768155
100.372159606954
100.372111732606
100.372105868496
100.371861046786
100.371756204497
100.371991274073
100.371998028717
100.372058538205
100.372138237815
100.371898303804
100.37165758518
100.371404372473
100.371114702653
100.370792064182
100.370321523655
100.370606305562
100.370996344138
100.371279903425
100.371546669652
100.371807043604
100.371755984271
100.371471376116
100.371190093042
100.370896141453
100.37050691029
100.36999240617
100.370335607613
100.36983577938
100.369318237564
100.368836665361
100.368421681535
100.367737937159
100.368147955299
100.368738169016
100.369109391093
100.369563640511
100.369525146786
100.36938115517
100.369087518286
100.368985264387
100.368977814889
100.369240379039
100.368884135295
100.369596034617
100.371618238788
100.371987430983
100.372350170086
100.372389214277
100.373285278219
100.373170221644
100.373597953979
100.373709746472
100.373927626148
100.373918211975
100.374034764648
100.374217253054
100.374317994802
100.374420347858
100.374496159996
100.374410315017
100.374592803519
100.374547996863
100.374768522111
100.374782949017
100.374897593805
100.37481067105
100.374791870573
100.374677669693
100.374430832978
100.374220356871
100.37379085867
100.373449767322
100.373124053538
100.372656788908
100.372509993943
100.372217651755
100.372329738615
100.372136856057
100.372272571878
100.372283192318
100.3724223839
100.372193221895
100.372209199333
100.372324903626
100.372390361857
100.372346497622
100.372424556959
100.372178878377
100.371949419533
100.371705297047
100.371423650862
100.371119343755
100.370768980908
100.370323393505
100.369907622432
100.369489353501
100.369889543221
100.370333518647
100.370612693827
100.370984823855
100.371298499445
100.37157547326
100.371827562522
100.372079990362
100.372093678622
100.372010561309
100.371541330326
100.371949978081
100.371414229381
100.370949974328
100.371423999071
100.370979471586
100.371179215432
100.370832567696
100.372083478793
100.371002381777
100.370406188889
100.369619022673
100.36878496543
100.368084607463
100.3675127794
100.367014908247
100.366367106221
100.3656653277
100.364190633751
100.364067949429
100.363406675521
100.363075351978
100.361848330091
100.360801997154
100.360377249956
100.360182305252
100.35408578589
100.354722830966
100.353746007259
100.35436149911
100.354142376076
100.35566508315
100.356494970555
100.355633460526
100.354282556791
100.355737704172
100.355229704637
100.355604726291
100.356426043515
100.356507300986
100.355455835144
100.355608538814
100.358816071837
100.354211671066
100.353894724167
100.355909658287
100.355939718835
100.356299113302
100.357771175638
100.359130591866
100.360066920509
100.359958687691
100.35811503138
100.359099071118
100.360413868549
100.359330930871
100.357832839101
100.357957839182
100.359799753751
100.361257025566
100.363169721425
100.36465880065
100.365317089997
100.363675317204
100.365024398433
100.366517320312
100.366966972535
100.36839762707
100.367680142735
100.368817513987
100.369730204951
100.370539204363
100.371169717502
100.371742973537
100.371886354329
100.37215380245
100.371972632475
100.371196143105
100.371584246501
100.371441335088
100.372294471352
100.371406989025
100.368908428589
100.368415826051
100.36772761396
100.366947972494
100.366208863191
100.365662393396
100.365219360627
100.364872501575
100.36461083611
100.363655542557
100.363361256315
100.363416997472
100.363495879987
100.363618184419
100.363265205809
100.36297876933
100.364124555486
100.364508295772
100.36550118221
100.366973211728
100.36897912567
100.369388980298
100.367371981669
100.365708533336
100.364483278618
100.363821350565
100.363488111037
100.363371962059
100.363433675844
100.363667384069
100.36405990499
100.364585421589
100.365225433848
100.366001066303
100.366962425533
100.368190929357
100.369733270563
100.37156943059
100.37358152205
100.375577156491
100.377400433383
100.379041689828
100.38050041548
100.381762391123
100.382705237038
100.383175337514
100.383138461285
100.385399959962
100.387267169616
100.3885361863
100.389104228423
100.389108156611
100.388445096433
100.387100496795
100.385211521492
100.382948437362
100.380476029801
100.378003256074
100.37559618929
100.373265530995
100.371073836846
100.36915068234
100.367572430343
100.366346986496
100.365405828054
100.364664640223
100.36408635798
100.363668908339
100.363376136804
100.363202886226
100.363258339336
100.363751816976
100.364938282418
100.36690137867
100.36900059056
100.370841326806
100.371325474554
100.372750237226
100.373565577854
100.373437693983
100.373703261145
100.373435541069
100.373940961963
100.374066088384
100.374050570238
100.374159226635
100.374148449699
100.374255986504
100.374357297467
100.374440624305
100.374566009982
100.3744911396
100.374659296788
100.374630917613
100.374823325657
100.374843874787
100.374940174653
100.37486993955
100.374849208215
100.374741192557
100.374497258925
100.374300766074
100.373794525291
100.373589704707
100.373356308306
100.373203178731
100.372940459236
100.372761669844
100.372485078731
100.372526469098
100.372479961727
100.372515906503
100.372624013053
100.37255014134
100.372779226026
100.372611634906
100.372356547653
100.372549198494
100.372588046757
100.372620535702
100.372693306835
100.37249647586
100.372456769654
100.372124265954
100.371868219325
100.371615156846
100.371308343715
100.370982797145
100.37059526123
100.37032555096
100.370543501264
100.370940071919
100.371262133312
100.371573504558
100.371824673382
100.372080561827
100.372349510661
100.372335114594
100.372405191457
100.372319865466
100.372134794552
100.372316522371
100.37211581128
100.372369627538
100.371899987127
100.372347664409
100.371948328287
100.371623381539
100.371872317029
100.371987132616
100.37180719603
100.372495983106
100.371793504825
100.369418741357
100.367513639376
100.366225566382
100.365544585521
100.365040164645
100.364554776687
100.364214350573
100.363908457583
100.363712726466
100.363502678363
100.363376280892
100.363274110519
100.363164240146
100.363186810481
100.362937402321
100.363275524061
100.363423094777
100.36361911895
100.363503419061
100.363464531894
100.363631059934
100.363768999491
100.363783216969
100.363392426705
100.363767862982
100.363528362735
100.363246532349
100.362371969485
100.361085635315
100.361015269785
100.360015688124
100.35994169775
100.354642721926
100.355136350012
100.354957300341
100.356339684621
100.356328669069
100.357758962497
100.358679009748
100.357893822224
100.357139521898
100.357698394342
100.358026629328
100.358027783152
100.358376929042
100.358828209954
100.357956409099
100.360537351092
100.360404878266
100.358658852946
100.360473348663
100.360512676116
100.356860958903
100.3566347523
100.355272313745
100.358749811151
100.361137185066
100.364301826754
100.367077212407
100.368535994576
100.369144419186
100.370259869902
100.370980986925
100.371173004907
100.371117443944
100.371554785776
100.37140436711
100.371655658329
100.371662856849
100.371439729856
100.371600488496
100.37132164551
100.371030641965
100.371332826937
100.371496505024
100.371399823558
100.371127199784
100.370704058349
100.370093073619
100.370790951886
100.370833536012
100.37120520116
100.371166433401
100.371403480197
100.371610390267
100.371630760539
100.371359657622
100.371610658198
100.37166126937
100.371253059055
100.371447991424
100.371560529795
100.371109066318
100.371125058806
100.370599743135
100.369718646002
100.368612206224
100.368137111402
100.366297581069
100.367908526327
100.367761116091
100.368955190984
100.369884533914
100.370805969196
100.371238996844
100.371220674377
100.371596376871
100.371432965409
100.37181562246
100.371616049444
100.371627413133
100.37167533673
100.371621664968
100.371579334523
100.371463042353
100.370343746601
100.37122464915
100.371413503462
100.370420191803
100.367837750374
100.369028893241
100.369339585668
100.370650984224
100.371307751337
100.371344275879
100.370786963097
100.368214426501
100.369587127881
100.370044059054
100.37096554963
100.371404615319
100.371079649608
100.370843842878
100.370667373075
100.370205941616
100.368958541601
100.369946242271
100.371018920308
100.371091723479
100.371153818366
100.369556100266
100.370350994076
100.370550257554
100.371272200289
100.371762873367
100.371867237118
100.371899052139
100.371970502387