/*--------------------------------*- C++ -*----------------------------------*\
| =========                 |                                                 |
| \\      /  F ield         | OpenFOAM: The Open Source CFD Toolbox           |
|  \\    /   O peration     | Version:  v1612+                                |
|   \\  /    A nd           | Web:      www.OpenFOAM.com                      |
|    \\/     M anipulation  |                                                 |
\*---------------------------------------------------------------------------*/
FoamFile
{
    version     2.0;
    format      ascii;
    class       volScalarField;
    location    "1";
    object      p;
}
// * * * * * * * * * * * * * * * * * * * * * * * * * * * * * * * * * * * * * //

dimensions      [0 2 -2 0 0 0 0];

internalField   nonuniform List<scalar> 
74874
(
100.129205010441
100.131589193965
100.132062564632
100.130652353201
100.136167550101
100.136753940581
100.133596079048
100.13520441045
100.137721434141
100.137795086003
100.135682618397
100.134146519652
100.137430202014
100.136880185441
100.137891561234
100.138074967531
100.137456339196
100.134317628836
100.131408623163
100.130839042899
100.132313458208
100.133630605829
100.132112064452
100.131762412552
100.13720365016
100.137339568379
100.132738879544
100.133004502563
100.134167248819
100.132345932737
100.132483439666
100.133981614749
100.132986405084
100.132686238105
100.137272452871
100.136774635295
100.131672570716
100.132088752947
100.133530772547
100.131951488212
100.130520431408
100.131045885621
100.133952407986
100.137098776733
100.137546312924
100.137304185119
100.131161132246
100.130420771979
100.130026719648
100.129460597086
100.128447838032
100.128453148278
100.127738207796
100.128085869094
100.128352844122
100.128909631351
100.130110382233
100.129598860939
100.127991249835
100.127703930175
100.127436871451
100.126983770784
100.127028126398
100.127566011653
100.127727005439
100.128062689464
100.129615677058
100.13014940243
100.129025195092
100.128508330022
100.128376298107
100.128038700649
100.128700416545
100.128710373201
100.129698670485
100.130315422096
100.130792599687
100.131571000385
100.131115170502
100.132685495456
100.132293971808
100.133436545979
100.133695916599
100.133480783353
100.132913641656
100.132432409751
100.131935614081
100.128779484691
100.127104460636
100.129135389751
100.128096775269
100.124404801362
100.125353748396
100.127965705877
100.127663298327
100.125919846509
100.124161495356
100.125743822783
100.127306530442
100.126657061506
100.12598102921
100.125564999801
100.123744898484
100.122680125156
100.123876826162
100.123821260286
100.122559708521
100.123697965799
100.125677816445
100.126160670128
100.126507134769
100.127515362701
100.126288322499
100.124641649012
100.126284472739
100.127923471895
100.128200263515
100.125529790211
100.124622279338
100.12850590097
100.129559737505
100.127620341789
100.129599499088
100.133161357636
100.133384884093
100.130973622872
100.130737524928
100.124318385134
100.132468844966
100.132062190211
100.126631691668
100.124157549854
100.128795442594
100.129168043842
100.123497203903
100.123731072194
100.126630439541
100.125037106739
100.12386454712
100.121868969297
100.124755746384
100.127331569026
100.123570964689
100.123014090839
100.125252951651
100.12162797346
100.119280160817
100.121464630277
100.121429800456
100.119218307751
100.121600371871
100.125364172548
100.123386434641
100.124234659273
100.128296593316
100.12573926038
100.122447291522
100.124280568189
100.125341267422
100.126915939946
100.123940766988
100.123659882631
100.129743293224
100.129266041182
100.124858248503
100.127888514018
100.134679786036
100.135558051725
100.125253817376
100.152389353643
100.150347355451
100.122927967373
100.122791111813
100.128118579862
100.117659629532
100.119193155427
100.130245652329
100.126618982569
100.123766575359
100.123696725551
100.128602716679
100.118176316911
100.119321424455
100.119579370758
100.119331603153
100.126155238538
100.122419525505
100.122383838362
100.126017678615
100.119460175721
100.119728513749
100.119497233088
100.118089065836
100.116539862164
100.119481054913
100.117237808449
100.108599151224
100.111202048258
100.082976070837
100.079087911917
100.079451386922
100.085221042843
100.116447493557
100.110764962234
100.093721334105
100.086731551694
100.080410832776
100.081165160606
100.086141561021
100.083124126941
100.084089872696
100.08738686921
100.087374230081
100.084041339467
100.083107588633
100.085777479339
100.084958028532
100.078753242383
100.077482704206
100.082011443843
100.080054012271
100.07988512296
100.078884875993
100.078910306629
100.085135438315
100.08434078368
100.084656258918
100.085041840629
100.080307736395
100.080880737365
100.082228668458
100.082204157397
100.08086251005
100.080097601163
100.081088698908
100.08031428527
100.078833102535
100.078865866098
100.085661352033
100.084723691692
100.084385810471
100.085153642045
100.086432021059
100.086375357333
100.085756497941
100.085935250004
100.086189065453
100.086221829763
100.085314839693
100.085032698365
100.085023822076
100.085205500465
100.084845941294
100.084616315618
100.084274002854
100.085198047904
100.086308292653
100.086618168168
100.085873833828
100.085768935029
100.084043473353
100.084331804445
100.084312643796
100.08410704155
100.084260843127
100.084260231095
100.08428945893
100.084152997288
100.085870540404
100.085844102955
100.086087214686
100.086008865985
100.085843741881
100.085683006527
100.083978285353
100.084163761357
100.084304654696
100.084019808075
100.08169770152
100.081749364521
100.081862125081
100.081890208654
100.081804972876
100.081922032373
100.081872332819
100.081922034507
100.081873667571
100.081859372451
100.084132884769
100.084205802555
100.084135791623
100.084139368887
100.081814659893
100.081663933752
100.081744917172
100.081759762068
100.079759797761
100.079748131871
100.079800209305
100.079859335634
100.079918490025
100.079843481994
100.079930341142
100.079898844466
100.079947481946
100.079912495187
100.079900751509
100.07992199888
100.0818836805
100.081788545641
100.079833592283
100.079850923422
100.079739578764
100.079811152179
100.078076058122
100.078034806558
100.077983044513
100.07801464729
100.078057767956
100.078135999855
100.078079373045
100.078160063879
100.078138787054
100.078186975279
100.078168227476
100.078163854852
100.078173946031
100.078089200042
100.078104059617
100.078025200066
100.076222924068
100.076225025407
100.076182534801
100.076081518492
100.076099113262
100.07614450344
100.076248096778
100.076218409069
100.076310162226
100.076289920577
100.076359583959
100.076372737136
100.076379146731
100.07637570054
100.076277592292
100.076289731948
100.074211628234
100.074134269086
100.07410219841
100.07404994209
100.073803204508
100.073814705427
100.073962327035
100.074073094731
100.07405226916
100.074171356188
100.074172366783
100.074277242704
100.074330666888
100.074385763353
100.074371731784
100.074257088613
100.071695008017
100.071610576181
100.071493193865
100.071466742936
100.071404943428
100.070808496849
100.070773717096
100.071201209751
100.07130383096
100.071317939707
100.071470748112
100.071539630696
100.071731592974
100.071794819494
100.071874423448
100.071817812646
100.06799328378
100.06781621668
100.067813029221
100.06759850655
100.0674018978
100.067600749868
100.066364766482
100.066220660854
100.067150169241
100.067031308915
100.067192892917
100.067460178233
100.067502752365
100.067866012321
100.068045148158
100.068100555581
100.062028234058
100.061870694363
100.061560735159
100.06168187058
100.061534365184
100.060649736013
100.061532519176
100.059008818369
100.058883405175
100.060843882167
100.059948217139
100.060665551544
100.060936530031
100.06093495803
100.061474569109
100.061859956398
100.039561465847
100.039770915646
100.036507697717
100.03621726769
100.039846442341
100.040425168441
100.035663726684
100.036132159225
100.036048037592
100.035954502487
100.035503952506
100.034404799224
100.039246779326
100.038912965726
100.03566286984
100.03610096753
100.041932458216
100.044732853273
100.044811340639
100.042667732088
100.042448649093
100.044089896463
100.046314806532
100.040103958627
100.026932002044
100.069309872173
100.104952334396
100.104628060565
100.068166661678
100.035367127246
100.035584031977
100.174204364725
100.298721421995
100.224178385862
100.222210241687
100.1754006147
100.160037678415
100.145424891158
100.039092970118
100.045632794853
100.043824993388
100.041846764789
100.151220150161
100.151877334546
100.190666641083
100.129610648986
100.130347698776
100.192032933765
100.15314073793
100.151951876096
100.18832434902
100.125278398746
100.123057075506
100.179178589435
100.145765414906
100.162967144086
100.177990329805
100.298005448592
100.368065641462
100.346399230268
100.343118353161
100.361889716121
100.340203616182
100.293761663019
100.459195005296
100.48543851352
100.492510405281
100.526407084271
100.596565239458
100.600775290986
100.521547687455
100.454570648202
100.388150394393
100.350237427413
100.3742292266
100.372743367315
100.369667265827
100.369760118922
100.370673096509
100.371651454931
100.372916080013
100.37472813077
100.377082126467
100.379825136924
100.382693586819
100.385233122226
100.386844614898
100.385626038587
100.38393834683
100.381934549424
100.379746423917
100.377541762542
100.375341933079
100.373152517565
100.37107354239
100.36923283857
100.367731437325
100.366586571028
100.365723398563
100.365042626854
100.364481946818
100.364015269171
100.363644978129
100.363404807424
100.363396362767
100.363760694726
100.364693281545
100.366313679066
100.36822691894
100.37007870849
100.371777615656
100.372879052768
100.372775536127
100.372710816009
100.372088042692
100.371554959455
100.369736063208
100.367767292034
100.365933846346
100.364514180209
100.363761420648
100.363493011956
100.363520946997
100.363742514052
100.364083545765
100.364517321225
100.365036536168
100.365667081804
100.366481356881
100.367553255563
100.368954012535
100.37067028707
100.372624279789
100.374702865078
100.376770414455
100.378783643263
100.380726080668
100.382473283913
100.383960937468
100.385045680709
100.385579023606
100.38744577588
100.388712071236
100.388069493245
100.386767250669
100.384946886451
100.382767756949
100.380396839774
100.378019445016
100.375690694946
100.373415166563
100.371256043389
100.369345322074
100.367782416187
100.366586730644
100.365685874117
100.364975168835
100.364393401483
100.363921230928
100.363562870996
100.3633576714
100.363412340671
100.363899730993
100.364997604767
100.366759658681
100.368700553453
100.37048388604
100.372078875301
100.373113465386
100.372998580271
100.373361329885
100.373611354079
100.373610423261
100.373834630943
100.373722482016
100.373952155972
100.373839128269
100.374073086786
100.374021477346
100.374089924003
100.373935779302
100.373872509308
100.373767388712
100.373624066149
100.373603313177
100.373547181877
100.373792863179
100.373965115592
100.373896485251
100.373941233086
100.373730570417
100.373830860992
100.373608012103
100.373724693771
100.37350300203
100.373500654095
100.373252825945
100.373096293221
100.373363849024
100.373376843997
100.373588507274
100.373489674668
100.37369198221
100.373636214311
100.373812835188
100.373761484552
100.373774270638
100.373576244187
100.373564769765
100.373473864597
100.373458440955
100.373391995327
100.373507298984
100.373640165606
100.373642116764
100.37348323216
100.373560594687
100.373377400416
100.37346029857
100.373260578212
100.373235192784
100.372959378416
100.372769884912
100.373036914608
100.373097270962
100.373287586125
100.373253965351
100.373374400141
100.37344799624
100.373369280525
100.373567232254
100.373664773134
100.373746389172
100.373868171308
100.373993444256
100.374127383549
100.373971445652
100.374221269674
100.374172732235
100.374256888639
100.374100172014
100.374045052662
100.373837429183
100.373535631046
100.373211312252
100.373037906946
100.372891504203
100.372714849629
100.372584860032
100.372618961952
100.372796698019
100.373013303876
100.373175913548
100.373330983014
100.373672438513
100.373524182849
100.373375502118
100.373286989846
100.373382200716
100.373309160619
100.372983093458
100.372723743134
100.372618567595
100.372452988749
100.37252342089
100.372583918948
100.372875862062
100.373175008053
100.373245201917
100.373284499099
100.373422969203
100.373513608413
100.373649737543
100.37375443588
100.373853336884
100.37396430466
100.374092751348
100.374226700853
100.374279065774
100.374360420455
100.374178587664
100.374145379067
100.373883183518
100.373682225358
100.373394056847
100.372945498581
100.372508861134
100.372152290261
100.371995395418
100.371761797314
100.371763921604
100.372060379175
100.372383582775
100.372802348591
100.37258062846
100.37229055465
100.371941846315
100.3717667081
100.371602436174
100.371395222551
100.37124226485
100.371365412648
100.371616207025
100.371903064341
100.37206112944
100.372121443708
100.371847630589
100.372020150325
100.372432724226
100.372385495813
100.372744699465
100.372961852062
100.373271991928
100.373443229203
100.373473863409
100.373594416671
100.373708255893
100.373829238583
100.373733745627
100.373965906936
100.373846465369
100.374094895538
100.374216500217
100.374089214103
100.374332680009
100.374457661933
100.374431857868
100.374514791671
100.374403133821
100.374184230697
100.374181865139
100.374169773263
100.374296461952
100.374273464969
100.374411402223
100.374345002427
100.374374067677
100.374203785176
100.374307466269
100.374553266526
100.374522404022
100.374599442556
100.374535125141
100.374364762595
100.374293874263
100.373859839574
100.373683489612
100.373560768307
100.373175028288
100.372723055813
100.372366365064
100.371799332613
100.371607967816
100.371327805323
100.371076387509
100.37085724146
100.370652043032
100.370363484024
100.370079841424
100.369977010062
100.370318037509
100.370686799378
100.370917253112
100.371108660703
100.371334848568
100.371545387817
100.371274973546
100.371417043158
100.371192869065
100.371504923792
100.372100785618
100.373250238901
100.373565930646
100.373614076803
100.373855773686
100.373853965364
100.374079704283
100.373962651605
100.374084577226
100.374333834233
100.374436566448
100.374543039974
100.374419840276
100.374658275896
100.374629144882
100.374700723985
100.37462986543
100.374451991406
100.374385194176
100.374005543313
100.373818628782
100.373474330287
100.373085654241
100.372771596078
100.372563296827
100.372028038603
100.371868215955
100.371705373077
100.371583647329
100.371598040408
100.371292064648
100.37100252858
100.370788597972
100.370423585756
100.370629068026
100.370982411942
100.37128219106
100.371422500389
100.371126988061
100.370824475289
100.370439781456
100.370486471048
100.370033554314
100.369620759361
100.369291107824
100.369042741281
100.368830212184
100.369115100848
100.369444894251
100.36977965108
100.370133513388
100.36987012165
100.369998725557
100.370080404965
100.370295440321
100.370397828318
100.371058517455
100.371750726705
100.372976700611
100.373312082131
100.37345898066
100.373500242462
100.373742578733
100.373753336911
100.373865436663
100.374001883872
100.373989336558
100.373979463793
100.374207092238
100.374312819728
100.374195173669
100.37430120655
100.374399577765
100.374626830446
100.374511381152
100.374738665493
100.374701545403
100.374772532685
100.374696651183
100.374567639913
100.374457720543
100.374156143663
100.37394501284
100.373584975258
100.373194740426
100.372917438236
100.372426652142
100.372323877165
100.372125858975
100.371977364711
100.371864111024
100.371894309479
100.371756504377
100.371973817182
100.371680973943
100.371376157515
100.371066299872
100.370725760987
100.37035493822
100.369936871239
100.369527182624
100.368993511825
100.36929582434
100.369805294858
100.370281311096
100.370541095164
100.370828087687
100.371144038842
100.371454708036
100.371470985971
100.371359734748
100.371008371167
100.370214570661
100.370069922807
100.369921389757
100.369258845727
100.368749409698
100.367469859409
100.367879043425
100.368694491844
100.369477139585
100.370242515531
100.370543344878
100.370345191841
100.369790031237
100.369042699377
100.368310930755
100.367359957232
100.366517178379
100.366083472974
100.364061768341
100.362811316032
100.364373895514
100.365478478271
100.366219870613
100.367199171817
100.366994249309
100.365681680126
100.36490514642
100.363665363232
100.362034100267
100.360817476608
100.360953754306
100.362157326137
100.363877374233
100.365064039726
100.365722246418
100.366782970061
100.367404658099
100.368282813889
100.369364350918
100.370143641075
100.370906217486
100.371559021162
100.370856769111
100.371149678398
100.370907784434
100.371620461299
100.371133939319
100.370637026203
100.370125797136
100.369598267464
100.368992409027
100.368164735735
100.366889818818
100.366083463432
100.364963407394
100.364388759334
100.363848694613
100.362473213596
100.361822438151
100.360644052938
100.354603700362
100.356358569817
100.356942657686
100.359540576877
100.361185773024
100.364182601516
100.365104371866
100.367879561997
100.368785024662
100.370919958644
100.370100988267
100.368976378427
100.368932224104
100.368934997295
100.369029278017
100.369533268749
100.368840245592
100.367121493844
100.366672602056
100.366504345957
100.36653400917
100.368721565445
100.370799177509
100.370778094114
100.37159038845
100.372069464386
100.372057096804
100.37246047925
100.37222131996
100.372371216232
100.372423003204
100.372459990939
100.372372927112
100.372255007364
100.372078955316
100.371561109981
100.371346942685
100.371537081143
100.371609146646
100.371515113889
100.371781064052
100.371765703532
100.371851578345
100.372169390925
100.372245011671
100.372460017153
100.372193250384
100.372425716886
100.372475279342
100.372175419926
100.372359365162
100.372056348114
100.372050560021
100.371605240641
100.37151508541
100.371983332486
100.372000545385
100.37228250858
100.372149283492
100.372376362653
100.372172631474
100.372348470693
100.372151244368
100.372078830025
100.37200578018
100.372119748363
100.372266025364
100.372189433873
100.372043879585
100.371862414341
100.371498061327
100.371034372373
100.370562547739
100.371001749817
100.371085835109
100.371523560847
100.371413534418
100.371838645876
100.372004290589
100.37219092237
100.371977708323
100.372190140091
100.372230758292
100.372062914568
100.372189276008
100.371829030304
100.371909513719
100.371662147054
100.371011865825
100.370782112224
100.369979267805
100.370124261092
100.370255294715
100.371208747144
100.371705874591
100.371736127437
100.37209274817
100.371873770562
100.372195750665
100.372167704287
100.371964147239
100.372122898811
100.371945746632
100.37173403327
100.371543559924
100.371835687754
100.371960853686
100.372080273378
100.372044976737
100.371939170594
100.371712759356
100.371359424719
100.370673768757
100.369907514571
100.370635686448
100.370849263311
100.371354563512
100.371302922065
100.371732466843
100.371931127006
100.37205149579
100.3717929976
100.372055143493
100.372040036205
100.371906725002
100.371922923553
100.372066926157
100.371665693178
100.371734015198
100.371346565874
100.370573896552
100.370684335832
100.371458336847
100.371502762327
100.372025378174
100.371802273724
100.37189956128
100.371942927657
100.371906747291
100.371915852956
100.371913572907
100.372018252764
100.370409759014
100.371368674288
100.371406139067
100.371657969304
100.372126213147
100.372240436235
100.372251208673
100.372492719749
100.372452639417
100.372548347368
100.372619871675
100.372459870119
100.372578858987
100.372402245408
100.372388560876
100.372473056029
100.372516265268
100.372562212712
100.372716488875
100.37276090087
100.372753191708
100.372456567722
100.372397971369
100.372439781766
100.372201180691
100.371860450174
100.371571744073
100.370906772945
100.37031650202
100.36974430012
100.3699520919
100.370153979975
100.370083854628
100.369994185682
100.370458139625
100.370509696846
100.370639090258
100.37066305955
100.370306701808
100.370663159704
100.370942214724
100.371292552497
100.371796186412
100.372096389275
100.372232979796
100.372269506572
100.372310205167
100.372304772236
100.372387490059
100.372597921546
100.372544291739
100.372740712814
100.372642345902
100.372821841367
100.373031698277
100.372941192128
100.372933077548
100.372658754129
100.37255085609
100.372303124015
100.371875113919
100.371409748749
100.371276407698
100.371424142717
100.371560235788
100.372125332836
100.371684957055
100.371803640994
100.372150118621
100.372295679635
100.37253474492
100.372566591099
100.372699843157
100.372633109227
100.372914809932
100.372796349619
100.372848654409
100.373162647281
100.373087621287
100.373082364224
100.372948218177
100.37274871587
100.372941109263
100.37299294563
100.37309066411
100.373209507636
100.373285210041
100.373212082373
100.373082154533
100.373102905521
100.372867276463
100.372844671874
100.372677746064
100.372328649087
100.372321157341
100.371777655388
100.371384551901
100.371299823251
100.371033724745
100.370930644166
100.370875047556
100.370808915762
100.371673209602
100.372175749219
100.372239580581
100.372428098926
100.372464487947
100.372730575399
100.372918612658
100.372689018048
100.373098785082
100.37307432896
100.373208640334
100.373316988664
100.373452640877
100.37355573129
100.373682750054
100.373796539351
100.373941335061
100.374056269483
100.374185824043
100.374291752049
100.374403919953
100.374495085876
100.374588334221
100.374492766895
100.374701707689
100.374592021764
100.374805718729
100.374774278152
100.374851833261
100.37475023792
100.374705034113
100.374601208154
100.374558037191
100.37435012816
100.374096861245
100.373722950218
100.373356809914
100.373099613557
100.372634289987
100.372565158002
100.372417403074
100.372360264012
100.372349273902
100.372099739814
100.371977204359
100.372199677921
100.372191262144
100.372229113684
100.372309744679
100.372058375568
100.371811014115
100.371552404028
100.371258349936
100.370928927384
100.370484059713
100.370744950606
100.371144566613
100.371434923849
100.371707273024
100.371970654736
100.371948358463
100.37166320811
100.371376722736
100.371072537642
100.370675650063
100.370156894595
100.370499422637
100.369995431189
100.369473831538
100.368994544977
100.368566503237
100.367864348731
100.36828007915
100.368895081022
100.369258374491
100.369723848288
100.369690575513
100.369562134285
100.369268284241
100.369101306034
100.368915878308
100.36910997141
100.368804558606
100.369682258799
100.371667602023
100.372033323963
100.372413644567
100.372427549785
100.373385427806
100.373256108402
100.373759811116
100.373877345821
100.374099791052
100.374096449566
100.374210377018
100.374417355624
100.374510009581
100.374601079285
100.374670125715
100.374573933294
100.374763335795
100.374671573482
100.374859579762
100.374828629141
100.374892450896
100.374788336478
100.374751832821
100.374628375087
100.37439606003
100.374217439008
100.373857797772
100.37355129564
100.373283391685
100.372864554356
100.372767853214
100.372475104216
100.372592412367
100.372395809254
100.372537091748
100.372513145913
100.372629943484
100.372405839798
100.372408047352
100.372491431634
100.372567652233
100.372520046059
100.37260815862
100.372357722771
100.372121417355
100.37186943942
100.37157891996
100.371265522516
100.370906678468
100.370448646842
100.370022657412
100.369625502205
100.370006421059
100.370463726084
100.370749390656
100.371128787973
100.371445780151
100.371729233546
100.371988096817
100.372247984956
100.372269741374
100.372185449354
100.371753241253
100.372165511524
100.371702389834
100.371227286827
100.371713408489
100.371231301627
100.371509023198
100.37112961872
100.372096837558
100.370890890484
100.3703693777
100.36978067401
100.369144113591
100.368483746238
100.367821575382
100.367096074395
100.36620714746
100.365238832798
100.363590755795
100.363798523402
100.363497773867
100.363127626759
100.361673430964
100.360450591617
100.359873640482
100.359892343486
100.353584464445
100.353987917138
100.352325510719
100.353155308447
100.352795899524
100.354528989793
100.355542193312
100.354641936284
100.353113630107
100.354809181116
100.354438115891
100.354758385926
100.355548996021
100.355816339519
100.354764299717
100.355266822013
100.358348050695
100.353974482656
100.353789262512
100.355782117403
100.355731219579
100.355949412734
100.357823687078
100.359128527403
100.360227225532
100.359466363748
100.358043802985
100.359466198479
100.360830700947
100.359599823377
100.357993532532
100.358223626703
100.359966134971
100.361441991291
100.363287134011
100.36477472274
100.365472898844
100.363800672111
100.365141838879
100.366635551517
100.367145283736
100.368593085616
100.367771760035
100.368930468749
100.369867586616
100.370700796292
100.371360292026
100.37195427073
100.372177165784
100.372453374243
100.372291293527
100.371497538044
100.371915625721
100.371781009077
100.372455325902
100.371414685153
100.368944809534
100.368406721366
100.367848232378
100.367267340169
100.366665332291
100.366083519017
100.365452962356
100.364749312894
100.364049656646
100.363264014804
100.363333890431
100.36365072833
100.363753091408
100.363750455187
100.363264006448
100.362717699369
100.364162536112
100.364488184214
100.365361325558
100.36684270465
100.369015643874
100.36944207346
100.367302664581
100.365602543566
100.364437389935
100.363884546833
100.36369767379
100.363721463537
100.363896053346
100.364181673204
100.364555440947
100.365012154249
100.365574479335
100.366303158577
100.367251467818
100.368486424132
100.370022556128
100.371830872022
100.373816241171
100.375792641093
100.377609148182
100.379246510965
100.38069249736
100.381929908935
100.382850231748
100.383307356119
100.383269318035
100.385551219989
100.38742861912
100.388703131259
100.389273944991
100.389278192216
100.388613908761
100.387266635057
100.38537249759
100.383103244881
100.380626044757
100.378141784481
100.375724041893
100.373380490528
100.371169608252
100.369231883475
100.367656808214
100.366450453763
100.36554722509
100.364838097978
100.364261054435
100.363817410909
100.363515526521
100.363399075046
100.363558413267
100.364175347556
100.365410488243
100.367264722075
100.369210607026
100.370923669465
100.371413387916
100.372808499842
100.373677044866
100.373547081295
100.373833537243
100.373546307083
100.374112905183
100.374234237609
100.374221519582
100.374325556767
100.374318757324
100.374419625625
100.374513881339
100.374592141553
100.374732835594
100.374646952879
100.374818857201
100.374741995989
100.374905904058
100.374882416906
100.374935719616
100.374845958636
100.374809742842
100.374693194987
100.374472340019
100.374314756624
100.373893461197
100.373722651174
100.373505097412
100.373394693255
100.373150419975
100.373016591931
100.372744745895
100.37280080437
100.372748428588
100.372740012769
100.372826382043
100.372747728686
100.372966084885
100.372795878897
100.372540110238
100.372729988741
100.37276956038
100.372805331234
100.372886985349
100.372684079734
100.372649805154
100.372307420193
100.372044993261
100.371786425404
100.371472680021
100.371139283366
100.370740812663
100.370472295608
100.370677845658
100.371086389713
100.371415786631
100.371734944321
100.371992926779
100.372254380273
100.372526613832
100.372521811168
100.372585687289
100.372495796397
100.372329152479
100.372508266864
100.37233103273
100.372579548127
100.372186346208
100.372625231408
100.372255013625
100.371961265059
100.372226538292
100.372327516952
100.372125263703
100.372771561285
100.371984070375
100.369572542804
100.367628227055
100.366455217137
100.36572369893
100.365259765934
100.364814722241
100.364443381236
100.364062125327
100.363754665307
100.363446640563
100.36328887063
100.36315407351
100.363089819194
100.363257725146
100.362977951091
100.36368036564
100.363717681137
100.363936454777
100.363841858593
100.363737742438
100.363891585645
100.364014938172
100.364403799199
100.363765906419
100.364125729214
100.363713628083
100.363390817523
100.362402075668
100.361044731537
100.360838570186
100.359911098258
100.359538496784
100.353406440549
100.355033160148
100.354747676832
100.355405809802
100.355583302234
100.357282581154
100.358378362221
100.357591111868
100.356648557665
100.357350121296
100.357837183025
100.357819053262
100.358144151357
100.358672451452
100.357824689237
100.360350503468
100.360895428323
100.35880503071
100.360451923729
100.360612829851
100.356411205552
100.355930036223
100.354040019483
100.358014269606
100.360830150496
100.364320872256
100.367450496015
100.368913534872
100.369499605147
100.370619054255
100.371340649211
100.371536117964
100.371471387547
100.371905311301
100.371754585919
100.371979639823
100.371993947801
100.371796865446
100.371906123156
100.371662560569
100.371386112224
100.371722615637
100.371892556002
100.371816994274
100.371567154537
100.371163256947
100.370558374644
100.3712769529
100.37139702461
100.371763708205
100.37170008095
100.371919868131
100.372091755534
100.372015301701
100.371750865177
100.371981138276
100.372039853758
100.3716269679
100.371808414016
100.371939565351
100.371508960999
100.371522272628
100.371003290317
100.370122377802
100.369004392735
100.368554851756
100.36659818986
100.368249271
100.368072976879
100.369282807082
100.370207721351
100.371126080422
100.371562567958
100.371539785223
100.371902951908
100.371741350647
100.372085552294
100.371937243585
100.37189347799
100.371885676401
100.371797745859
100.371714219121
100.371564689498
100.370435261853
100.371314976257
100.371478159804
100.370484588703
100.367812089486
100.369075954884
100.369396365875
100.370745592369
100.371436151213
100.371525148525
100.370948796733
100.368316332535
100.369713365437
100.370238266316
100.371175509383
100.371621792847
100.371295387089
100.371025796858
100.370783189169
100.370334419966
100.369142973001
100.370102563959
100.371127179539
100.371212288612
100.371320025762
100.36974271825
100.370524526936
100.370749520346
100.37147609873
100.371943951358
100.372045901651