/*--------------------------------*- C++ -*----------------------------------*\
| =========                 |                                                 |
| \\      /  F ield         | OpenFOAM: The Open Source CFD Toolbox           |
|  \\    /   O peration     | Version:  v1612+                                |
|   \\  /    A nd           | Web:      www.OpenFOAM.com                      |
|    \\/     M anipulation  |                                                 |
\*---------------------------------------------------------------------------*/
FoamFile
{
    version     2.0;
    format      ascii;
    class       volScalarField;
    location    "1.9";
    object      p;
}
// * * * * * * * * * * * * * * * * * * * * * * * * * * * * * * * * * * * * * //

dimensions      [0 2 -2 0 0 0 0];

internalField   nonuniform List<scalar> 
80683
(
100.076827046242
100.078795725566
100.075636486827
100.07996311157
100.086989778289
100.087124905597
100.085176815876
100.0857266407
100.085710719562
100.086089951514
100.086586558379
100.086354845787
100.088079331532
100.087694316242
100.090234727482
100.090236403455
100.086807955999
100.081994084094
100.080908611341
100.080860701911
100.08186559807
100.081722835073
100.0809408781
100.082382066974
100.088830245418
100.088881095614
100.083168250657
100.081363212859
100.081259098468
100.080547102433
100.080416226657
100.081402460354
100.081353397069
100.083104195814
100.088652968616
100.088483479518
100.082285948005
100.080904330256
100.081636398569
100.081589402507
100.080706215864
100.080755078173
100.081877551051
100.086615289005
100.089885537534
100.089735635958
100.082792757196
100.082280212232
100.080087570037
100.079570321196
100.079498101468
100.079128421253
100.078594947544
100.077459707343
100.078551609411
100.079703163006
100.079865605184
100.079029669956
100.07799549294
100.07684307192
100.076470839828
100.077060307964
100.076985048871
100.076308226958
100.076860839705
100.077989768973
100.078965090825
100.07994561684
100.079917058074
100.078725061163
100.077625342384
100.078800538511
100.079225827069
100.079555321219
100.079557951759
100.080058779974
100.082495871795
100.083203876549
100.080598259071
100.083754339739
100.086872255201
100.088525436684
100.086368570265
100.086118651461
100.087282744671
100.085278112991
100.082800084727
100.078604356022
100.083904750945
100.072001674584
100.059971827683
100.065694691474
100.066819835115
100.079005781082
100.07490627416
100.076122313696
100.078278319221
100.076283600808
100.07487057457
100.074358030343
100.076932660222
100.078433541001
100.074369409043
100.073428910402
100.075764685675
100.072969831555
100.071850145927
100.072879500767
100.072882701611
100.071898447402
100.072980599161
100.075709382743
100.073379099424
100.074176805948
100.078658707918
100.07744648275
100.074680971081
100.075045665916
100.076373257561
100.078328832018
100.076062968382
100.074769314708
100.079316398262
100.079350196571
100.076353489169
100.07989410827
100.086130269597
100.091529184192
100.084896421696
100.084803921074
100.089085587685
100.104380389103
100.072993435835
100.073533744693
100.057408268559
100.030945376156
100.031862923159
100.027406646324
100.027817445268
100.034205737783
100.064954335885
100.077298838754
100.073407615332
100.073212031108
100.08011149598
100.066392729142
100.067143366899
100.067072947047
100.067264077345
100.076970139361
100.072121412748
100.072109103011
100.076913088462
100.06728634016
100.067103576609
100.067126319982
100.066206542107
100.06503581366
100.06708762133
100.065305351888
100.025801587491
100.02895770624
100.029959419299
100.029815861645
100.029028742131
100.029178070674
100.030643418601
100.031301479155
100.034615099307
100.031732225336
100.032740668179
100.036327416156
100.03632670166
100.0327335348
100.031664570979
100.034341671331
100.033841884894
100.027122057684
100.028826715935
100.035581611761
100.036016134961
100.034897817385
100.034783114533
100.035897716656
100.035791538316
100.034909468997
100.035302823054
100.035605091434
100.030355277034
100.031127763893
100.032324159513
100.03227312347
100.030983095501
100.030088762371
100.031005108428
100.030267176686
100.034589007027
100.035821502868
100.036528052398
100.036778016329
100.035953005086
100.035992854748
100.03693132944
100.036799952128
100.036158619977
100.036433227782
100.036644310024
100.036651192539
100.03588835244
100.035472904373
100.035396186645
100.035656346181
100.035150100874
100.034948253679
100.036073398318
100.03424404229
100.034028336054
100.034194811629
100.034352333939
100.033853628651
100.033845098561
100.034456354872
100.034478148357
100.034333007726
100.034619472888
100.034654583017
100.034666995003
100.03452533154
100.036262326791
100.036181712637
100.036446773533
100.036289473352
100.034316321406
100.031976611763
100.031895821386
100.031668924868
100.031614757285
100.031597844431
100.031611048771
100.031586205325
100.031693413688
100.031959216158
100.03203250564
100.032343927339
100.032373928873
100.032463339083
100.032389503164
100.032292385015
100.034448342527
100.034500401951
100.032214236283
100.030383784991
100.030071312675
100.029887323591
100.029599706281
100.029498938544
100.029303458132
100.029796401451
100.029905361016
100.029629304838
100.030026169442
100.030187456005
100.030549342779
100.030641938409
100.030782097417
100.030706349713
100.030557729476
100.029144020932
100.028790949013
100.028321316882
100.027966200819
100.027537314571
100.027394578587
100.027133692679
100.02705814302
100.027353123366
100.027792116869
100.028275130768
100.028598944334
100.029078461851
100.029287638886
100.029483506959
100.02939727569
100.028318341067
100.02785194268
100.027150266447
100.026399944633
100.025745549928
100.02505790959
100.024794427852
100.024624883762
100.024246140943
100.024657562787
100.025626995585
100.026287588961
100.026981426957
100.027709460483
100.028093558393
100.028419977387
100.027559380649
100.027401126354
100.026560654472
100.025263349731
100.023981907316
100.022869175764
100.021773025063
100.021247477223
100.021123067797
100.020478368938
100.021139739794
100.022828367177
100.023802609228
100.025142915754
100.026339734637
100.02699570895
100.025781533601
100.026810809816
100.026518415169
100.024975684872
100.022642934262
100.020396309824
100.018843052976
100.017102243644
100.015794547953
100.015771727313
100.014620516081
100.015752863142
100.018834715484
100.020212336242
100.022714726815
100.024807035158
100.022927657381
100.023960840845
100.025921347881
100.025537541284
100.022680605436
100.018360119835
100.014024971302
100.012276548879
100.009656407718
100.006502671142
100.007535071239
100.005627353814
100.006991383386
100.012339693725
100.01405071745
100.019320472919
100.009082318393
100.014738139314
100.013024307833
100.017599342282
100.018500608778
100.013255459242
100.003203789584
99.9954252118725
99.997041742078
99.9934121129054
99.983940916155
99.9874247202877
99.9870535048261
99.9892967013211
99.9958333642203
99.99702904731
100.007264415786
100.022570418598
100.031334201093
100.031951973447
100.042823780539
100.037906721604
100.028385094136
100.017238527287
100.001261524097
100.001900828189
99.9980137423617
99.9876925976084
99.9828937363832
100.015725828696
100.03947151264
100.042530237947
100.024675109292
99.9898995147158
99.9855282415644
100.079831967659
100.159786642385
100.096288055185
100.100742812641
100.093027888904
100.085177199344
100.084012534894
100.087790912191
100.100747595206
100.113418190197
100.133754994431
100.111008765198
100.095400352037
100.091996288986
100.06693879872
100.057137130624
100.053010326371
100.055887809773
100.066685102666
100.080611579154
100.170611959219
100.191810687073
100.195931465843
100.18318585784
100.19496256665
100.196420835186
100.230039776074
100.281719372641
100.185848658521
100.208382358949
100.27152768943
100.238270482514
100.273800635203
100.296025370631
100.223728383183
100.201366680407
100.247875527312
100.212287753452
100.173673730611
100.203606694228
100.145935204476
100.13778967924
100.186264493455
100.16320978806
100.17255704937
100.265996488957
100.31406493686
100.281646256444
100.284744841697
100.322864534573
100.30589298997
100.282691057783
100.389786972831
100.418343824138
100.38370765309
100.408534371193
100.412788632247
100.365846556426
100.312505399521
100.358041510148
100.298224960734
100.407446856825
100.431034302745
100.407565054546
100.423062360754
100.448698403851
100.407523603066
100.350556108762
100.376008326412
100.298643770596
100.336683057411
100.417963984023
100.4464520008
100.452593252622
100.458588924344
100.464480476787
100.465254304464
100.464530686117
100.470083282564
100.47627642752
100.476024455745
100.470624222358
100.47064956199
100.471055116742
100.470675195194
100.471128115803
100.47137900195
100.471997133264
100.471678911119
100.472250565795
100.469829727596
100.471366164775
100.466785516189
100.469728640423
100.463891594745
100.468870262003
100.464762464403
100.434726591331
100.408775097863
100.377013741737
100.358053333882
100.373546646086
100.371303053108
100.370802236622
100.371530702914
100.372286965728
100.372987328601
100.373772428435
100.374653432157
100.37554231387
100.376380569276
100.377163000586
100.377795176601
100.378250466534
100.377330860125
100.376444019059
100.375562516081
100.374656461067
100.373693407066
100.372646559029
100.371522516661
100.370368024706
100.369249698075
100.368224534037
100.367333532968
100.36660020084
100.366060437828
100.365752547301
100.36573649336
100.366099941588
100.366874904957
100.368021629692
100.369365551857
100.370693722238
100.37151429914
100.371646739626
100.371599142717
100.371600778297
100.371768766568
100.371913116737
100.372013690843
100.372086652269
100.372112704063
100.372318794153
100.372446087086
100.372788674634
100.372970953299
100.373117592323
100.373055796091
100.372952914505
100.372837252524
100.372741064332
100.372606660755
100.372649832516
100.372598417447
100.372822305828
100.372940517044
100.373024312647
100.372860984027
100.372674539967
100.372328566831
100.372173687735
100.371990857323
100.371975719748
100.371919689051
100.371818026378
100.371691629852
100.371589603297
100.371490170396
100.371450154634
100.371609465667
100.371722756537
100.371811402001
100.371875412682
100.371901231331
100.372039199673
100.372170199079
100.372525184059
100.372734131687
100.372905328649
100.372728869868
100.372567484335
100.372353050081
100.372013182831
100.371933387787
100.3718078921
100.371764583544
100.371703993575
100.371639182625
100.371541171696
100.371457471671
100.371358454829
100.371328505358
100.371468554431
100.371558632378
100.37161306166
100.371660661168
100.371708434237
100.371830065743
100.371909896527
100.372208122312
100.372406018731
100.372532087152
100.372512482633
100.372396656144
100.372204683047
100.372001741572
100.371936403766
100.371907255696
100.372190024784
100.372364392041
100.372229230615
100.372062194984
100.371779087938
100.371685541478
100.371594474631
100.371570004596
100.371528140646
100.371486120987
100.371411331113
100.371356881963
100.371256474279
100.371230371059
100.371345724069
100.371414580153
100.371430016703
100.371488581747
100.371522703541
100.371584127382
100.371626578363
100.371906921193
100.372064293912
100.371841647859
100.371700836115
100.371487805699
100.37150457799
100.371428511196
100.371389951678
100.371346760604
100.37135312712
100.371290993319
100.371253754982
100.371154146783
100.371135282456
100.371228763037
100.371277794561
100.371281764512
100.371318774869
100.371330956038
100.371386616892
100.371371283994
100.371566328128
100.371649779588
100.37171753017
100.371554614709
100.371488208283
100.371425993523
100.37135834701
100.37131234394
100.371315109596
100.371245682488
100.371276402626
100.371238591127
100.371203150377
100.371196602829
100.37117345515
100.371140291649
100.371018437258
100.37101917032
100.371092358125
100.371079872135
100.371105476094
100.371118870569
100.371151971833
100.371159659676
100.371266075766
100.37126381081
100.371457977205
100.371337552323
100.371284662364
100.371054779997
100.371071189052
100.371019822681
100.371215420236
100.371147560958
100.371166895342
100.371074089975
100.371106039446
100.371119142713
100.371071866619
100.371015448212
100.371061161839
100.371017303965
100.371022441055
100.370934921604
100.370854487211
100.370717609956
100.37041139213
100.370727181662
100.370885465421
100.370901758892
100.37096802664
100.370962550026
100.370987230934
100.371018253666
100.371047601432
100.371040430726
100.371110468327
100.371061698799
100.371021195041
100.370990765814
100.370845884579
100.370998473942
100.370841119539
100.370980043727
100.371041760323
100.37092666197
100.370963342779
100.370952006273
100.370934570149
100.37090398836
100.370911664406
100.370841719265
100.370817455922
100.370657608684
100.370179778085
100.370680855249
100.370809751278
100.3708175945
100.370859979615
100.37085943023
100.370879571467
100.370889139032
100.370887137921
100.370850098433
100.370901772666
100.370783550277
100.370822273906
100.370886721362
100.370919818289
100.37087019749
100.370769502341
100.370765410479
100.370423093073
100.370305719222
100.370543681382
100.370442089863
100.370686968826
100.370481763422
100.370735316417
100.370815711835
100.370775314104
100.370806620276
100.370784069554
100.370799300403
100.370793632528
100.370771217431
100.370784678437
100.370762803779
100.370660489584
100.370155011028
100.370695494506
100.370746771755
100.370762207945
100.37078623316
100.370759103078
100.370808496559
100.370818701174
100.37086162144
100.370850932529
100.370881071654
100.370937328963
100.371000164129
100.371055947634
100.371122780577
100.371083314274
100.371115012066
100.371171663717
100.371230447285
100.371290851699
100.371360084981
100.371425709812
100.37150475557
100.371582394155
100.371675948584
100.371760561246
100.371863732967
100.372018154032
100.372114587571
100.372204769978
100.372212949704
100.372422230147
100.372561605577
100.372900256614
100.373074660002
100.373213886257
100.373194408112
100.373082447318
100.372891977663
100.372538375791
100.372248735892
100.372109504236
100.371973522712
100.371867852987
100.371961452163
100.372088261847
100.372289794609
100.372416580552
100.372778572697
100.372655612208
100.372492515313
100.37227737331
100.372023803162
100.371992065961
100.371852711396
100.371731194409
100.371582574491
100.371454796803
100.37149864441
100.371565667257
100.371782049455
100.372007113025
100.372124637757
100.372220839213
100.372402698972
100.37234250928
100.372195828259
100.371983375623
100.371784819869
100.371752936619
100.371600614449
100.371497219318
100.371388068088
100.371195934669
100.3708922859
100.370547434853
100.370456404517
100.370236440092
100.370370341785
100.370526002152
100.37082866272
100.37115170119
100.370862139931
100.370615764388
100.370428997515
100.37020468579
100.370398842823
100.370413789721
100.370715665314
100.370812921505
100.370682777294
100.370790019779
100.370815627961
100.370969068181
100.370939874603
100.370993626188
100.371003648055
100.370987871782
100.371218452882
100.371249779653
100.371291180003
100.371307856263
100.371356455486
100.371393119338
100.371460736947
100.371513923141
100.371596605759
100.371658305985
100.371750927608
100.371830866177
100.371953915531
100.372121086307
100.372222017583
100.372313530823
100.372298712876
100.372539590645
100.37269181612
100.373018089865
100.37315876375
100.373311989545
100.373257083635
100.373258761637
100.373246486282
100.373005984148
100.372707778567
100.372552517814
100.372362031494
100.371986664464
100.371502256071
100.371325856187
100.371209740801
100.371014431848
100.370887244908
100.370753704622
100.370651049734
100.370527059347
100.370453042073
100.370361361513
100.370525518718
100.370737970447
100.370903821952
100.371018892855
100.371137872503
100.371200629216
100.371322613174
100.371428368549
100.371555953004
100.371666663254
100.371416497556
100.37169792691
100.372046284619
100.372041865918
100.372325821205
100.372252122407
100.372080490744
100.371766501556
100.371858774589
100.371988059307
100.371931440574
100.372058770676
100.372232718834
100.372316715557
100.372406817084
100.37240707836
100.372661615516
100.372798136885
100.373100658204
100.373228166024
100.373357346285
100.373326142243
100.373325154882
100.373089284402
100.372830265012
100.372452067741
100.372068064172
100.371648969124
100.370985751697
100.370699192734
100.370536661479
100.370372124043
100.370165915443
100.370005238324
100.369826463798
100.369680976012
100.369568502167
100.369799564758
100.369989932719
100.37020861091
100.370576906465
100.370611106354
100.370821596279
100.370571719969
100.370857938685
100.371064539648
100.370884992841
100.37146473134
100.371771288331
100.371930302759
100.372009045271
100.371896070555
100.372029141948
100.372109829223
100.372335388626
100.37239321008
100.372495266946
100.37250672905
100.372753803135
100.372885716994
100.373170086521
100.373300891357
100.373449695234
100.373413313785
100.373422839057
100.373183056478
100.372955777258
100.372592267931
100.372178174991
100.371798500552
100.371182677503
100.370922921162
100.370598732985
100.370412484391
100.370357275097
100.370123628363
100.369963303494
100.369786506509
100.369616733759
100.369383298475
100.369158582613
100.368958273428
100.36878509851
100.368596732841
100.368349326106
100.368123651992
100.368438604974
100.368725383318
100.368904265652
100.369064980833
100.369234627894
100.36942485475
100.3696742858
100.369886905595
100.370040349034
100.370172792832
100.370391175744
100.370244557091
100.370075487139
100.369594022653
100.369646311788
100.369845324905
100.369831108439
100.370519468323
100.371108471207
100.371537038612
100.37174437061
100.371829468871
100.371736956225
100.371857818744
100.371939420051
100.371768935283
100.371711388836
100.371844919572
100.371943429599
100.372058175088
100.372194866857
100.372449893855
100.372473699624
100.37258720102
100.372597708919
100.372843904936
100.372979238652
100.373249186124
100.373389375705
100.37357146128
100.373465064595
100.373539105737
100.373298712093
100.373065064794
100.372696756366
100.372306343359
100.37191586234
100.37132515551
100.37104987126
100.370609944754
100.370563907557
100.370402650326
100.370458966033
100.37043227991
100.370574719751
100.370385476358
100.370200687967
100.370046817064
100.36987167861
100.369668644244
100.369420426808
100.369183536987
100.368946070083
100.368702979269
100.368376934235
100.368011875996
100.367686277933
100.367425737301
100.367011481287
100.367258277269
100.367625180524
100.367894336054
100.368235010614
100.368487680801
100.3686927693
100.368943396856
100.369188193477
100.369446430923
100.369629789512
100.369801043662
100.369954611608
100.370184870237
100.370152777801
100.370002326213
100.369692835114
100.36952838345
100.369315701542
100.369257561107
100.369318871841
100.369104308924
100.36876900704
100.368387467953
100.36794783167
100.367396037632
100.366737224897
100.365790795399
100.364498231578
100.363767476676
100.363920129064
100.364487236949
100.365109378071
100.365711363229
100.366418298091
100.366984452077
100.367545087811
100.368044987504
100.36846899516
100.368889844936
100.369591001817
100.367820940561
100.36691419678
100.366320848448
100.365811262353
100.365442934289
100.365175734105
100.364927810231
100.364634056203
100.363811722281
100.363089237845
100.360047096643
100.35794432064
100.361800721929
100.361364509348
100.36088339246
100.357949908092
100.358289099799
100.357690889981
100.359927118138
100.361073562548
100.361595897507
100.362566766376
100.363531310107
100.364574471489
100.365554335668
100.366240999342
100.367017651601
100.367628106283
100.368209514949
100.368661112993
100.369062807492
100.36942146052
100.369870757401
100.36953035158
100.370150685901
100.368311911645
100.371514660609
100.371704712586
100.37166783792
100.371876170436
100.372111150817
100.372179528233
100.371917267682
100.371254010497
100.370339673949
100.369080638885
100.367216963117
100.36553471635
100.364209003588
100.366094957232
100.366622166388
100.363221570568
100.361017855047
100.359872686536
100.350676038238
100.35379347095
100.352780225983
100.356127311176
100.358333597545
100.366280109213
100.36774864614
100.369911485009
100.369851161111
100.3700993775
100.370284556108
100.370489036042
100.37080514471
100.371094212608
100.371348560705
100.371511663212
100.371172585034
100.370089569444
100.368665682109
100.367338893931
100.366287985438
100.36567455633
100.365500275835
100.365683566404
100.366123220687
100.366761259093
100.367549717491
100.368477226991
100.369534959952
100.370691015052
100.371895440726
100.373091672188
100.374238059411
100.375325267869
100.376374485327
100.377409308103
100.378449637193
100.37951396989
100.380596610511
100.379218310401
100.378023013622
100.377190696443
100.376413438045
100.375660954346
100.374898690675
100.374096852337
100.373224599931
100.372250132949
100.371177856541
100.370061309889
100.368975094821
100.367984335549
100.367141378214
100.366484348334
100.366062941886
100.365906082341
100.366073289392
100.366615504052
100.367516380149
100.368707911233
100.370041781544
100.371211890987
100.371780445608
100.371778323898
100.371893131876
100.371992119021
100.372043826198
100.372124172655
100.372281674646
100.372523785913
100.372534383815
100.372671774435
100.372709292273
100.372987830617
100.373135688587
100.373346255518
100.373535385431
100.373540202147
100.373643386095
100.373701733293
100.373657904174
100.373425069428
100.373198734349
100.37275206864
100.372445159576
100.372222143686
100.371989776059
100.371629645673
100.371231437307
100.370801123425
100.370689199411
100.370561030982
100.3705980749
100.370743159345
100.370670215016
100.37095962386
100.370843605832
100.370655578329
100.370775624272
100.370559428955
100.370399882726
100.370246088547
100.370031425181
100.369789948473
100.369549488186
100.369281953876
100.368978942664
100.368712105494
100.368240162966
100.368464380325
100.368817610293
100.369121348943
100.369376235021
100.369614899101
100.36986408799
100.370077436516
100.370237052017
100.370412069731
100.37064039426
100.370458971166
100.370497455321
100.37054143702
100.370305439237
100.369876054567
100.369455093152
100.369275569191
100.369463303341
100.369644846572
100.369568450089
100.371889964597
100.371739538358
100.372386325285
100.372279919701
100.372025301611
100.372320554979
100.372296723869
100.372475476806
100.372728869666
100.372669158883
100.372809331389
100.372910246292
100.373234230068
100.3735571512
100.37374862584
100.373848911005
100.373758724694
100.373606272922
100.373518637259
100.373346440138
100.372927392372
100.372606072489
100.372125281746
100.371747053709
100.37136964388
100.37095869767
100.370821047585
100.370571527831
100.370734662242
100.370593970164
100.370749038079
100.370867687579
100.371090831907
100.371013296989
100.371253106874
100.371086270997
100.371107937493
100.370957845982
100.370832241985
100.370692103967
100.370522445609
100.370331374933
100.370140165535
100.369922498463
100.369669019336
100.369389665763
100.369099164732
100.368762933653
100.368345419719
100.367884357823
100.367537627731
100.367102730224
100.367424306293
100.367859030187
100.368297142737
100.368526381875
100.368851717988
100.369163694457
100.369454408311
100.369707829153
100.369942909969
100.370159010497
100.370347717727
100.370521959533
100.370709715837
100.370918486493
100.371060391684
100.370949752346
100.370839391812
100.370836022104
100.370550076304
100.369642509855
100.368693511703
100.368327770961
100.368579164073
100.368933837812
100.369673022584
100.370140533596
100.369975124273
100.368961751685
100.370865310604
100.369141885099
100.371560527893
100.371732208791
100.372962309774
100.371986993328
100.371887891426
100.37167634996
100.371225382873
100.370653142361
100.370007277024
100.369375783291
100.368693573078
100.36810774792
100.367444341772
100.367249565741
100.365493506705
100.364665410346
100.363597643332
100.362802327007
100.360842398579
100.360295671227
100.359373494553
100.35890290443
100.349382056526
100.353144511576
100.351302597455
100.3515878358
100.353151614421
100.354089008927
100.353182371276
100.353796023477
100.354270178676
100.359850617457
100.357520247497
100.358774789052
100.356866513655
100.355177861427
100.355727694819
100.357787399005
100.35904732019
100.359917381132
100.359888687444
100.357892742005
100.358493685971
100.360830905573
100.362002043142
100.363646620813
100.363284460496
100.364648142004
100.365695742762
100.366761536593
100.367553890942
100.368260165781
100.368775632531
100.369193590239
100.369534465606
100.369867669473
100.370041793553
100.37004716585
100.370154435854
100.37021305402
100.369499403773
100.368340551106
100.370928457504
100.372325465913
100.372638673702
100.37236376118
100.37241941011
100.372571524895
100.372586790725
100.37288382485
100.372845007691
100.372981248323
100.373100588808
100.373444833223
100.373553814578
100.373904713123
100.374023883927
100.373947717328
100.373982181864
100.373890261011
100.373853365666
100.373828868218
100.37368815898
100.373426373097
100.373088666826
100.372761484277
100.372702129736
100.372113610025
100.371838387854
100.371557726712
100.371446665893
100.371199900283
100.370984099672
100.370739349892
100.370861679951
100.370861336003
100.371044575091
100.371201019758
100.371121371042
100.371317282852
100.371252006427
100.371397426356
100.371282618127
100.371183690887
100.371035057485
100.371033349569
100.37082878813
100.370678619661
100.370496610629
100.370307537347
100.370078034586
100.369854985137
100.369572582674
100.369274335589
100.368974883927
100.368616790993
100.36819404993
100.367858336421
100.368071538214
100.368505061073
100.368861227599
100.369171828388
100.369471199599
100.369750913681
100.369982937829
100.370199841249
100.370404553525
100.370595590502
100.370758688425
100.370924371564
100.370936566869
100.370992229064
100.370814986521
100.370622474308
100.370850161177
100.370065567232
100.370294043472
100.369364302084
100.36979325843
100.370216073837
100.370286487548
100.37051775501
100.370303307151
100.370650420698
100.368987688915
100.372334942293
100.373701490791
100.373279859217
100.372511998527
100.373087185193
100.37215668133
100.371877090186
100.37133678231
100.370295296863
100.369561942541
100.368764121577
100.367936802344
100.367291935791
100.366560768153
100.365773914149
100.365992690334
100.366699795566
100.367543836569
100.368430083149
100.369360561252
100.37032478355
100.371108762279
100.371782907965
100.372051233101
100.372464876607
100.37287316483
100.372660558646
100.371957701821
100.371991414968
100.372150623592
100.372200867481
100.372096751639
100.372187586254
100.372401070142
100.372377219225
100.372661166166
100.372694480427
100.372735863651
100.372969897272
100.373039117162
100.373311981279
100.373644249678
100.373813544368
100.373901457692
100.373828131903
100.373815546154
100.373826789583
100.373724557752
100.373443018828
100.373014131967
100.372672089429
100.373001711668
100.373160125258
100.373392963967
100.373732321792
100.373868897049
100.373948172021
100.373995574163
100.373898001027
100.373775859617
100.37354393118
100.373466286676
100.373303741689
100.37298412107
100.372930391998
100.372821354715
100.37284221049
100.372518079589
100.372526331364
100.372377534909
100.372222341316
100.372238545794
100.372470763452
100.372436102874
100.37273191455
100.372775483643
100.372861791541
100.37288458555
100.372426990125
100.372525612396
100.372646299957
100.37278861111
100.373084642297
100.373172129982
100.373431948013
100.373824732138
100.373976044339
100.37395122428
100.373806096733
100.373576948149
100.373480632925
100.373266090853
100.373223394665
100.373141655068
100.372986280147
100.37273944369
100.372460711084
100.372060676689
100.371915806156
100.37148019818
100.371269557787
100.371115488069
100.37085626609
100.370982081916
100.370884963389
100.371187386431
100.371064275513
100.37118750148
100.371267012086
100.371390214892
100.371350489123
100.371485481165
100.371439524654
100.371506207442
100.371411534043
100.37129775266
100.371160278581
100.370988637423
100.370806952701
100.370633947554
100.370427795076
100.370224571709
100.369967251605
100.369730666126
100.369430666991
100.369110066017
100.368789535561
100.368398990037
100.367938531892
100.367590329636
100.367084434308
100.366453210197
100.365803405942
100.365195006146
100.36433295763
100.363589577221
100.364459074346
100.365259871103
100.365892080424
100.366554025198
100.367117034271
100.367536835647
100.367712170658
100.367353010686
100.367053339143
100.366464014207
100.365817600616
100.365127545618
100.364156243654
100.364979040457
100.365479158028
100.366151097425
100.366687835638
100.367031889067
100.366397981551
100.365854504081
100.365015593622
100.365573778717
100.366078220455
100.366617376704
100.36720507949
100.367707240999
100.368097389875
100.368263295221
100.367755527593
100.367318955339
100.36692743937
100.36649456527
100.365740855433
100.366240963634
100.366831207887
100.36711172063
100.367458796963
100.36784136521
100.368344645656
100.368731678022
100.369015293557
100.369258609999
100.369494086476
100.369743852219
100.369951450523
100.370123439604
100.370286323099
100.370240001246
100.369940648043
100.369555270957
100.368960532608
100.369150488723
100.369312810551
100.36968839679
100.370146887869
100.370440834668
100.370362015962
100.37044067154
100.370574694625
100.369936088237
100.369469505967
100.369855350045
100.369387905069
100.368838383521
100.368107303625
100.367294806638
100.366235788274
100.36510471494
100.364753739641
100.36617556967
100.367384874868
100.368291739342
100.369073026274
100.36964328024
100.370110015466
100.370445836077
100.370218044799
100.370541801524
100.370694339376
100.370812162234
100.370743531173
100.370503582066
100.370561985649
100.370262154104
100.370424423481
100.371139749493
100.369735094868
100.371861605471
100.372378815748
100.373641423823
100.372833463006
100.373271695033
100.372621801908
100.372322546235