/*--------------------------------*- C++ -*----------------------------------*\
| =========                 |                                                 |
| \\      /  F ield         | OpenFOAM: The Open Source CFD Toolbox           |
|  \\    /   O peration     | Version:  v1612+                                |
|   \\  /    A nd           | Web:      www.OpenFOAM.com                      |
|    \\/     M anipulation  |                                                 |
\*---------------------------------------------------------------------------*/
FoamFile
{
    version     2.0;
    format      ascii;
    class       volScalarField;
    location    "0";
    object      p;
}
// * * * * * * * * * * * * * * * * * * * * * * * * * * * * * * * * * * * * * //

dimensions      [0 2 -2 0 0 0 0];

internalField   nonuniform List<scalar> 
80212
(
100.056325402547
100.054360827182
100.045641289468
100.03677264431
100.039436713984
100.039980930475
100.041228397118
100.042686574643
100.044413567939
100.048056084608
100.055051401239
100.059534057556
100.059595914257
100.054864546737
100.04780999636
100.044184568101
100.042477887889
100.041111741169
100.03992306585
100.039437385139
100.039619877951
100.039725699102
100.040476023113
100.042933672477
100.048032602703
100.050742862118
100.049816873944
100.047267581034
100.047966375176
100.051739485449
100.05005282936
100.050064589884
100.049860760354
100.049799716264
100.052736600803
100.050794546792
100.049364922767
100.046712339432
100.037808745489
100.031216340802
100.031094723924
100.037739848451
100.046656486408
100.049314960935
100.050762883328
100.052718744956
100.049746319397
100.049799517137
100.049994469306
100.0499778598
100.051660852714
100.04788561754
100.047185267185
100.049735618515
100.050659712153
100.047949079329
100.042855399774
100.040400308728
100.039651416233
100.039575201522
100.039601149017
100.037507289096
100.035669994405
100.036150389254
100.047802929513
100.051677952383
100.049356858093
100.040120757663
100.045012355718
100.051634657293
100.048220776687
100.046971633549
100.045312672448
100.046058264333
100.054653887372
100.049055515714
100.047299139845
100.046512009256
100.030384277749
100.015007069771
100.015137198371
100.03046106714
100.046566816793
100.047341753265
100.049089696809
100.054684899789
100.046133208476
100.045393732361
100.047055678345
100.048307550636
100.051722795875
100.045106624382
100.04021536374
100.04945198992
100.051776639103
100.047894442976
100.036239945174
100.035753144415
100.037585900321
100.03966751897
100.036800965566
100.037648642386
100.041719487977
100.041210059302
100.040963950061
100.043172618265
100.056089469344
100.061746150374
100.061761533
100.056255824302
100.043297792915
100.041089808883
100.04124988531
100.041754155745
100.037644222155
100.046124905881
100.05448390837
100.066987817376
100.067045366548
100.066693660355
100.05339544552
100.047805818907
100.046622131388
100.052256639852
100.055373373062
100.053276920983
100.046203638498
100.050919192198
100.055950338816
100.059150504037
100.05953674593
100.055818689929
100.055722198475
100.060572140073
100.053510533786
100.051776978584
100.052323806534
100.038699552229
100.02633526082
100.026375720992
100.038797805025
100.052381301809
100.051797611464
100.053547275861
100.060638580971
100.055820772898
100.055936909428
100.059647593477
100.059259504759
100.056055326981
100.051022584263
100.04631047491
100.053384672662
100.05548744353
100.052356776846
100.046729277915
100.047908582829
100.053473187857
100.053171300823
100.045678575744
100.046163581696
100.054536749825
100.055904958569
100.053278691199
100.053973349933
100.060350081388
100.063520787892
100.063559315378
100.060368426075
100.053969550285
100.053253212342
100.0558408664
100.066218806095
100.065227366856
100.065429100167
100.065584071912
100.06590448244
100.065324276882
100.064559889328
100.057113013034
100.05878933299
100.059041077663
100.054392150951
100.067748716791
100.064196405309
100.066203832739
100.062713157753
100.064678908929
100.062871986315
100.056526554642
100.066429810467
100.069027766047
100.042425366883
100.042474627404
100.069032012373
100.066509171442
100.062706482393
100.062979861215
100.056569352057
100.059002108444
100.061514905524
100.063969992856
100.064781021534
100.062826436563
100.066289306548
100.064292747671
100.067838053196
100.064635577179
100.066757610144
100.067125391321
100.067073679682
100.066268867932
100.063255398443
100.063237999775
100.064168441317
100.064514207597
100.065427964363
100.065698496769
100.065821960175
100.065899739873
100.065366612064
100.065678824539
100.065452221967
100.064847299935
100.064565123777
100.063900165238
100.062606938513
100.061776410757
100.062376720209
100.064644882421
100.065076477518
100.065319583451
100.065116452722
100.066176747404
100.066171376781
100.065125459937
100.063939754574
100.06461219624
100.064890360946
100.065497832274
100.065371562785
100.065959800471
100.065639449517
100.065473322213
100.065257959624
100.064180685558
100.064515063017
100.066537921848
100.066539485504
100.066555003237
100.066812524556
100.066901830501
100.066715467308
100.06684662633
100.067013152918
100.067255515238
100.066025656944
100.065825886564
100.067154716068
100.067142325623
100.067125590929
100.066928394397
100.0660556499
100.066056310562
100.065332261232
100.065084996367
100.065848514186
100.066052680674
100.065711915651
100.065405675123
100.065934834745
100.065846613523
100.065718341708
100.065437610541
100.066554838328
100.068665999713
100.068775709607
100.068777022704
100.068666987206
100.068739187822
100.068782985984
100.068765952899
100.068891969493
100.068963022049
100.068947185665
100.069034038984
100.069188118831
100.069144256854
100.069052301212
100.069054203864
100.066933009397
100.067134737301
100.067144125413
100.067169046608
100.067286904187
100.067047279707
100.066879478518
100.066737242353
100.06691240913
100.066817992867
100.068743034199
100.070905634146
100.070874565934
100.07093495995
100.070935569344
100.070876128611
100.070906415179
100.070946602891
100.071006218002
100.071091280786
100.071111270167
100.071105914641
100.071175177742
100.071276796145
100.07127116427
100.071245634846
100.071245355345
100.071271594691
100.071282550723
100.069198511658
100.069054619016
100.068976830136
100.068987974384
100.0689122656
100.068779829803
100.068791840896
100.07094741362
100.073176340302
100.073138350708
100.073126809279
100.073143479075
100.073146008967
100.073134027881
100.073148979107
100.073188150419
100.073257140863
100.073312798891
100.073322846906
100.073332834315
100.073378210601
100.073425325113
100.073432035942
100.073403072766
100.073396858574
100.07341316509
100.073404934715
100.073349526021
100.071176411764
100.071102276436
100.071106722587
100.07108820945
100.07100453236
100.073242175372
100.07549294249
100.075436762628
100.075398331676
100.075380925661
100.075367653741
100.075372614061
100.075393535648
100.075415642291
100.075455622203
100.07551370244
100.07555583552
100.075562886681
100.075548091726
100.075554164742
100.075564337879
100.075576391112
100.075550447758
100.075545111071
100.075562288792
100.075542500466
100.075529705689
100.075524260769
100.075539098197
100.075531204689
100.077777137637
100.077735847004
100.077691138199
100.077649172223
100.077604088202
100.077554654991
100.077559600902
100.077616725918
100.077666117276
100.077712494856
100.077760503688
100.077800594529
100.077824054759
100.077798961831
100.077723543352
100.077693748692
100.077741745151
100.077728181087
100.077729653164
100.077743089963
100.077689028743
100.077713771544
100.077785548865
100.077804547168
100.080088798341
100.07998501515
100.079979821651
100.079979572762
100.079945768548
100.079860266855
100.079767391852
100.07977110623
100.079870314925
100.079961552953
100.080001747639
100.080005636199
100.080007864233
100.080107046974
100.080163565348
100.079960369904
100.079870131976
100.079962855966
100.080037617443
100.080042055321
100.079968353322
100.079865459932
100.079947248099
100.080143659471
100.082622282404
100.082214336132
100.082101952472
100.082266694001
100.082407174923
100.082430258829
100.082323571117
100.082181582891
100.082184190078
100.082331077823
100.082444139977
100.082426775171
100.082291349529
100.082127447201
100.082236681358
100.082643820457
100.082534496306
100.082299740638
100.082310659962
100.082621067661
100.082618041315
100.082314867862
100.082288246128
100.082516152888
100.085822509553
100.084572319213
100.084071357054
100.084198819997
100.084631090469
100.084946645247
100.08509131957
100.085024161011
100.084845659176
100.084847508207
100.085030456079
100.085101803123
100.084960153834
100.084645697376
100.08421864143
100.084103644247
100.084595547384
100.08583991964
100.085761455885
100.085259278033
100.085699009673
100.085690465876
100.085256863325
100.085741117919
100.089611052367
100.08867101255
100.087264116668
100.087117848447
100.087152723167
100.087215146338
100.087349619916
100.08758750054
100.08789037131
100.087815726046
100.087817733571
100.087895688767
100.087596603512
100.087360588194
100.087220155623
100.087158225539
100.087136251866
100.08728684028
100.088692989843
100.089641241529
100.08925635575
100.087857495124
100.087845879222
100.089220473821
100.090845602766
100.097519953127
100.095652182757
100.096610860361
100.09650947598
100.095971934154
100.095099616907
100.094030238051
100.093834118535
100.095007494363
100.095442816144
100.095442238521
100.095008197473
100.093838506792
100.094038761191
100.095111482293
100.095981560161
100.096498379445
100.096601845236
100.095650025133
100.097505033298
100.090838840553
100.097952581219
100.095746365854
100.095751292568
100.097964816782
100.12019946723
100.118737432918
100.11751271691
100.11876239601
100.118396390665
100.117625494136
100.116512546193
100.112794053694
100.112361335872
100.114147871424
100.11295534115
100.112949826949
100.114139510699
100.112355389909
100.112791074382
100.116519983341
100.117645276606
100.11839727867
100.118739884553
100.117484224282
100.118736423687
100.120191787102
100.120646686213
100.120655336175
100.153350055801
100.154057035379
100.150655636444
100.15056057111
100.152781673218
100.150735468323
100.150383803694
100.152997340457
100.142063817323
100.141605481348
100.144626424594
100.160260332505
100.181191212277
100.181199069513
100.160268841208
100.144062311198
100.144067952211
100.169920698081
100.20976557497
100.212021104827
100.212014393637
100.222445982154
100.219208599127
100.189043760027
100.144625479804
100.141593887419
100.142040592904
100.152981825727
100.150328599013
100.150723616208
100.152762993637
100.150514647412
100.150615439536
100.154019352076
100.153333837061
100.187858748479
100.187869147917
100.203889590941
100.189810588177
100.18698350532
100.186629054891
100.188858196193
100.203097500732
100.186483689506
100.186893289834
100.204621704393
100.192681528751
100.21177413986
100.217006824693
100.219225750452
100.222461911555
100.245830793679
100.242822343451
100.242815322659
100.245821137342
100.23679699254
100.234634531109
100.23639661859
100.211776798613
100.18172705952
100.217002947357
100.211761210717
100.240822070258
100.269929532396
100.289700733127
100.303181474454
100.312845520405
100.31995296198
100.325238749579
100.329082891457
100.331771104178
100.333539046218
100.334661202923
100.335392401211
100.335911534457
100.336323941506
100.336684853919
100.3370199831
100.33733917292
100.337640696658
100.337914857757
100.338147825197
100.338321183183
100.338418294631
100.338430967784
100.338345977962
100.33812529591
100.337740877338
100.337529174992
100.337288082573
100.337030338644
100.336667075095
100.336370745949
100.336320193579
100.336504756602
100.336787186758
100.337097108699
100.337391745379
100.337651369715
100.337868652575
100.338041235576
100.338167616999
100.338247005157
100.338284052317
100.338293742105
100.338312391217
100.338337754468
100.338369833814
100.338409597839
100.338457643223
100.338513974538
100.338577823317
100.338647492066
100.338720320565
100.338792743666
100.338860253249
100.338917228219
100.338956583733
100.338969389842
100.33894410083
100.338865154337
100.338712093231
100.33846357761
100.338105603149
100.337646515643
100.337145446151
100.336744547448
100.336579490237
100.336495112389
100.336470899424
100.336448198377
100.336450663211
100.336434985306
100.336390450886
100.336377690549
100.336384325318
100.336369270333
100.336358464521
100.336353452713
100.336329265467
100.336262616292
100.336204050374
100.336109272606
100.33605319014
100.336143773288
100.336245430662
100.336262874618
100.336275217031
100.336279976769
100.336288078124
100.336283689663
100.336367301297
100.33629720095
100.336325595163
100.336355420365
100.336394048074
100.33636417867
100.336273713787
100.33623535443
100.336216089962
100.336197413949
100.33618206012
100.33617654988
100.336174746789
100.336163975476
100.336154725177
100.336066161008
100.336009601366
100.335971876076
100.336000923492
100.336077739637
100.336075056858
100.336062048745
100.336066385632
100.336080810769
100.33610001107
100.336121658466
100.336155732652
100.336197203043
100.336226457386
100.336253923128
100.336112827104
100.3360811553
100.336031783183
100.33599619964
100.335975990728
100.335961583765
100.335949316514
100.33593329961
100.335900174054
100.335869481784
100.335846292265
100.335813218922
100.335787654891
100.335721832955
100.335655592289
100.335601473283
100.335479457592
100.335412084741
100.335548512275
100.335677232082
100.335713535422
100.335745585401
100.335780405623
100.335821344807
100.335840971447
100.335840487784
100.335853857456
100.335871300223
100.335900693629
100.335954621061
100.336010137336
100.336060041438
100.335859604019
100.335814207154
100.335765888229
100.335735472399
100.335739249502
100.33571309472
100.335653058305
100.335632475891
100.33564112354
100.335610752563
100.335576170253
100.335444287448
100.33535973599
100.33531398912
100.335276633919
100.335240223835
100.335368120791
100.335475743621
100.33550009345
100.335516475656
100.335528113234
100.335519169848
100.335626063513
100.335538700194
100.335580532496
100.335615190643
100.335671337277
100.3357206629
100.335757715363
100.335552075527
100.335510927817
100.335462890096
100.335432885223
100.33541118364
100.335391265253
100.335379414684
100.33539467233
100.335393504086
100.335288408713
100.335164181332
100.335114492805
100.335063416792
100.33498191559
100.334862900576
100.334726225327
100.334684385731
100.334842788351
100.334913111589
100.334976861344
100.335030018102
100.335074967852
100.335218266695
100.335244007206
100.335267104791
100.335287681251
100.335308103274
100.335346716688
100.335394215979
100.335330617251
100.335214373601
100.335172098947
100.335140947231
100.335146082825
100.33512290464
100.33510109052
100.334987109317
100.334884582142
100.334886164148
100.334903392798
100.334848793187
100.334792694733
100.334663137024
100.334644193665
100.334714439629
100.334775405778
100.334650225917
100.334575600138
100.334487176027
100.334383229937
100.334249560154
100.334046244124
100.33401374286
100.334006997954
100.333998792009
100.33421572472
100.334320881536
100.334417771642
100.334498751643
100.334565953879
100.334716556807
100.334747913994
100.334895623819
100.335018864435
100.334922946493
100.334967728763
100.335003867847
100.335050732661
100.335083689216
100.33508113671
100.335096026992
100.334925640054
100.334921920668
100.334871911374
100.334833882534
100.334809698557
100.334780279679
100.334630271948
100.334602526616
100.334474340066
100.334370333672
100.334356321045
100.334360444915
100.334284272586
100.334201201827
100.334008348273
100.334030207168
100.334139869434
100.33423191447
100.334102188807
100.333989701742
100.333858178725
100.333692630896
100.33340222291
100.333261775784
100.333297002977
100.333523565278
100.333691806789
100.333831223224
100.333943648065
100.333986146551
100.334119010513
100.334202706137
100.334250583815
100.334398391461
100.334529284249
100.334660726599
100.334660735532
100.334693806302
100.334746554833
100.334776632593
100.334705192534
100.334592479076
100.334561355019
100.334519748573
100.334484203723
100.3344349891
100.334284505513
100.33432895925
100.334361780747
100.33439633301
100.334433111969
100.334460499082
100.334455153945
100.334572249765
100.334307508826
100.334319517874
100.334266261169
100.334236671067
100.334204753945
100.334184531325
100.334127500319
100.334038240057
100.333890695922
100.333843066102
100.333801407447
100.33370544116
100.33359665196
100.333363994248
100.333437921203
100.333576562375
100.333700770686
100.333603248709
100.333460368984
100.33328356582
100.333085881266
100.33273196629
100.332843959616
100.332950686867
100.333075143465
100.333219320408
100.3333550468
100.333487673935
100.333543146518
100.333668867529
100.333724354884
100.333793857359
100.33393557224
100.334059515667
100.333990745585
100.334056777214
100.334102535144
100.334134332094
100.334187578632
100.33421171974
100.334214066657
100.334112754494
100.334080135307
100.334025518551
100.333967548623
100.333927762562
100.333856992249
100.333799715806
100.333761361288
100.333680246471
100.333602648512
100.333472525471
100.333325934176
100.333147117524
100.332923881754
100.33266389276
100.332260329209
100.332454183026
100.332625687238
100.332812169939
100.332907610459
100.33307144305
100.333234157982
100.33332377905
100.333444978858
100.333565709729
100.333652298694
100.333757040345
100.333854079687
100.333921750683
100.333978528792
100.33405260964
100.33411340036
100.334152590289
100.334451426734
100.334116770582
100.334064704078
100.333951563324
100.333891796744
100.333827917243
100.333743735642
100.333617602504
100.333511067328
100.333408219197
100.333319674962
100.333161636551
100.332963974171
100.332693417629
100.332414001985
100.33201981061
100.332366076503
100.332573397894
100.332795799559
100.332975022536
100.332992500257
100.333128119486
100.333237763999
100.33333415102
100.333435823758
100.333540407143
100.333675716258
100.333777804868
100.333835325653
100.333897506134
100.334001206069
100.334085413892
100.334231657645
100.334083752396
100.333988466805
100.33387944013
100.333847283876
100.33373041723
100.333581015562
100.333462815709
100.333338913898
100.333361600683
100.333391712514
100.333266265615
100.333126650058
100.332930599733
100.332655580247
100.332414901066
100.332053495668
100.332477422412
100.332714862398
100.332960771458
100.333156807765
100.33322646578
100.33302143281
100.332780012793
100.33251607618
100.332143188565
100.332471645209
100.332717762911
100.333017972409
100.332923261132
100.333106905953
100.333274412858
100.333427609525
100.333486202548
100.333396342263
100.33354326682
100.333545911002
100.333629728152
100.333685271835
100.333833314339
100.333969776924
100.333966699711
100.334121290836
100.334272263172
100.334384909782
100.334792374738
100.334476237047
100.334324893417
100.334124782796
100.334138827334
100.333979532666
100.333843966468
100.33368324901
100.333762108374
100.33384917901
100.333706839746
100.333551360578
100.333644668628
100.333742725424
100.33359182131
100.33342467466
100.333252341082
100.333046911023
100.332749315763
100.332515613759
100.332939019312
100.333157231967
100.333360319824
100.333531902012
100.333661860239
100.333477791009
100.333270923753
100.333043350475
100.332750447392
100.333097972031
100.333316047484
100.333601024641
100.333446462936
100.333619907638
100.333762816243
100.333909270105
100.333939813298
100.333806167614
100.333965976951
100.333909239281
100.333948942367
100.333998692316
100.334158036721
100.334339748853
100.334313207569
100.334540200678
100.334761171156
100.334946183434
100.335430842657
100.334974333264
100.33478814019
100.334548492136
100.334566984162
100.334378451566
100.334193759147
100.334051085339
100.334093915375
100.334246929225
100.33440008118
100.334597132333
100.33482855161
100.334800308405
100.334959264788
100.33525189624
100.334986600401
100.335036068882
100.334806163375
100.334605472977
100.33443864366
100.33430251134
100.334178787446
100.334032131105
100.334151609852
100.334249498145
100.334126230628
100.333966111154
100.333831910392
100.333689396482
100.333561583546
100.33382270456
100.333954662526
100.33408947611
100.334194066644
100.334058639734
100.333898555369
100.333676921905
100.333601229966
100.333877461405
100.334043296559
100.334197377963
100.334321014594
100.334336619823
100.334358204959
100.334386985085
100.33440629518
100.334508783228
100.334641128168
100.334810863824
100.335029636343
100.335240326289
100.335218320332
100.335311768144
100.335621894969
100.335363316885
100.335414646411
100.3352094675
100.335017776572
100.3348484319
100.334729900777
100.334620865728
100.33446880726
100.334528839991
100.334430173018
100.334314218067
100.334171004853
100.333999876461
100.33389517557
100.334167614908
100.334311616758
100.334440546393
100.334545718168
100.334634057162
100.334668266584
100.334801366648
100.33482092327
100.334932198745
100.335064103534
100.335215625405
100.335407367675
100.335590828047
100.335576211264
100.335678299235
100.335962177545
100.335714070083
100.335747920502
100.335564714825
100.335397245273
100.335237253165
100.335110915673
100.334986158589
100.334866509777
100.334740352892
100.334650343917
100.334543658421
100.33442084286
100.334277293115
100.334181803233
100.334426198657
100.334550881975
100.334670361778
100.33477595148
100.33486740013
100.33496600112
100.334885958147
100.334788874983
100.334667202115
100.334535940801
100.334478021924
100.334690062082
100.334808825698
100.334917858829
100.334999437815
100.335072105952
100.33507571106
100.335080273595
100.33517060994
100.335281884481
100.335415386718
100.33556856399
100.335742922557
100.33590273063
100.335894155701
100.335996344174
100.336221898577
100.336019080033
100.336046282672
100.335884036679
100.335735694728
100.335590631597
100.335459367141
100.335354264554
100.335265962418
100.335161899576
100.335089591125
100.335013227213
100.334919768381
100.334802692568
100.334765615112
100.334949454131
100.335040423959
100.335119594025
100.335194984126
100.335267501521
100.335364393754
100.335298834278
100.33522392347
100.335140208653
100.33505263318
100.335032949042
100.335183397271
100.335260896552
100.335344923235
100.335411279329
100.335465944647
100.335460838903
100.335452833642
100.335535968875
100.335624363741
100.33574787981
100.335884748888
100.336041192782
100.336182332342
100.336166778187
100.336310196813
100.336495726677
100.336697386713
100.336941351194
100.336449150133
100.336780871333
100.336202909665
100.336569496041
100.335869229999
100.336236376719
100.336745393494
100.335791429041
100.336211630307
100.335089806537
100.335572880232
100.336254032303
100.335104250329
100.33566633365
100.336307808847
100.335291030173
100.335836189402
100.336391411917
100.33566506961
100.336171824738
100.336542279911
100.336756406054
100.336965383857
100.336517473251
100.336478216519
100.336735988678
100.336934458986
100.3369382578
100.336783323433
100.336705542047
100.336687366534
100.336667486683
100.336653002931
100.33663842535
100.336630048363
100.336618633535
100.336600129207
100.336581071444
100.336566375213
100.336554846247
100.336536559498
100.336432995488
100.336414185165
100.336393515352
100.336360883546
100.336244571304
100.336178189471
100.336282791853
100.336298696966
100.336165887638
100.336113678254
100.336002745592
100.335864429126
100.335812190539
100.335786328154
100.335727455554
100.335650877845
100.335581508321
100.335436360591
100.335264849581
100.335183065899
100.335349684769
100.335516021076
100.335658865366
100.335613231948
100.335670384259
100.335736333109
100.335787113998
100.335847002453
100.33589625672
100.33593637767
100.335961386797
100.33608365908
100.336204914256
100.336317366706
100.33643528671
100.336549977525
100.336562949215
100.336549025033
100.336539144681
100.336538625
100.336523417442
100.336493027866
100.336475925201
100.336465113408
100.33645442174
100.336439170715
100.336458027775
100.336472480569
100.33649454253
100.336523757827
100.336457739039
100.336621023643
100.336710571859
100.336717298652
100.33670711249
100.336693153602
100.336677056506
100.336662268428
100.336650988579
100.336636810433
100.336620336941
100.336606441821
100.336587001516
100.336478602996
100.336459879146
100.336454990187
100.336424682082
100.336354407367
100.336284219401
100.336168151452
100.33603419064
100.335884516842
100.335840011319
100.335776046339
100.335631439086
100.335463765015
100.335262041162
100.335151086221
100.335352293169
100.33553055077
100.335672763907
100.335643323705
100.335675268264
100.335694448336
100.335746659777
100.335731726262
100.335914002066
100.336107578183
100.336143742291
100.336250838095
100.336370919898
100.336476868299
100.336593449529
100.336610262943
100.336585165131
100.336571691147
100.336677768297
100.336774570133
100.336784343649
100.336760748552
100.33674617584
100.336729850908
100.336817219117
100.336802373224
100.336788044521
100.336776017951
100.336763294934
100.336751213598
100.336740741353
100.336728879914
100.336717270869
100.336703561935
100.336686668924
100.336671152246
100.336656130429
100.33663919675
100.336536385115
100.336515555987
100.336493298254
100.336363914005
100.336239672406
100.336106216015
100.33595506303
100.335862660805
100.335998574125
100.336135079984
100.336263883173
100.336389147974
100.336378686537
100.336393693804
100.336409249621
100.336504632225
100.33658301124
100.336661736064
100.336772017852
100.336793256962
100.336806918892
100.336888638905
100.336871053194
100.336848096543
100.336832764537
100.336913535346
100.33689783412
100.336883863164
100.336868637244
100.336857024943
100.336847186435
100.336836284754
100.336826268834
100.336814953842
100.336804427651
100.336793221022
100.336778628204
100.336766176232
100.336752993264
100.336736797873
100.336727165331
100.336719366263
100.336614606832
100.336601412804
100.336588213942
100.336575454781
100.336471594171
100.33639899202
100.336482721323
100.336477595947
100.33634426465
100.336321158242
100.336211066658
100.336055827152
100.335884165494
100.335723513245
100.335572275903
100.335452401466
100.335597953585
100.335751380325
100.335911856018
100.336079212526
100.336222973363
100.336209394576
100.336220565252
100.336231591086
100.336248505086
100.336231614717
100.336321872238
100.33643249096
100.336567222664
100.3366749241
100.336692296663
100.336761604035
100.336939088579
100.336956925173
100.336975258082
100.336954426653
100.336929355366
100.337006397987
100.336989832738
100.336972802146
100.336960426922
100.336948682733
100.336936858204
100.336925442199
100.336914356484
100.336905839527
100.336895882167
100.336885791751
100.33687660609
100.336863160379
100.33685173164
100.33684119561
100.336826358949
100.336817104354
100.336807809309
100.336798551432
100.33678956372
100.336778311617
100.336682192018
100.336676283768
100.336666722129
100.336554134591
100.336432423773
100.336306165944
100.336168696858
100.336034476248
100.335929238243
100.336062904119
100.336189939
100.336321743536
100.336445601065
100.336565597762
100.336562200108
100.336580891556
100.336655959762
100.336816458191
100.33687704588
100.336889506268
100.336815749285
100.336569037924
100.336228566998
100.335742364291
100.335066810176
100.33467639036
100.335401217962
100.33587288317
100.336292727755
100.336612235616
100.336860914565
100.3370521502
100.33698844688
100.336935571427
100.336793969521
100.336600645803
100.336346849022
100.336002085208
100.335407649815
100.334189483649
100.335323340087
100.331351717965
100.333388312269
100.333729311526
100.334541647012
100.333672826271
100.330680746634
100.328996329256
100.328768482016
100.330277312478
100.331673217232
100.333408515342
100.334174123199
100.334804286366
100.334861439104
100.33552868699
100.335989988885
100.336373746478
100.336670989148
100.336905120409
100.337087629758
100.337226620732
100.33719394502
100.337105584502
100.337023714544
100.337241104666
100.337152125561
100.337031280414
100.33688932973
100.336741998577
100.33654563363
100.336103959058
100.334018120833
100.334638122663
100.333021835123
100.339529197005
100.336861777726
100.33531773304
100.33147548332
100.332133975821
100.33097376072
100.325465468123
100.325281839778
100.33147428626
100.328841752127
100.331872659927
100.334318335653
100.334171345231
100.335552696262
100.335798356367
100.336075359436
100.336154529691
100.336814516669
100.337024442208
100.337193963409
100.337322342292
100.337284732315
100.337393689613
100.337092325693
100.337216233869
100.337101520822
100.337044278671
100.337028698907
100.337098424394
100.337074856267
100.33705946462
100.337041779114
100.33702803221
100.33701735737
100.337007874823
100.336997862023
100.336987679483
100.336978646907
100.33697046571
100.336961688673
100.336951736991
100.336939348228
100.336927287899
100.336916183078
100.336903701877
100.336896661424
100.336889922289
100.336880310813
100.336859220389
100.336851332945
100.336859887149
100.336858519283
100.336766693483
100.336757320548
100.336745359837
100.336737913319
100.336650913213
100.336565605247
100.336480051605
100.336577384155
100.336655444227
100.336659214492
100.336550997818
100.336419073632
100.33637815477
100.336267669346
100.336127839455
100.335967476002
100.335805462531
100.335652188203
100.335511239397
100.335370004377
100.335535847776
100.335673287776
100.33582734128
100.335993846235
100.336145908892
100.336286272128
100.33627435361
100.336296490495
100.336303523199
100.336312312366
100.336329561573
100.336407872008
100.336409054059
100.336493919338
100.336664047649
100.336860786664
100.337019130516
100.337085912088
100.337206165135
100.337221781307
100.337174867133
100.337159855331
100.337137309597
100.337121394119
100.337103654756
100.337088933129
100.33707623874
100.337068507931
100.337062012549
100.337054280607
100.337046030845
100.337038431219
100.337033063671
100.337023801759
100.337013095971
100.337001058876
100.336980926625
100.336971060703
100.336970778039
100.336968570769