/*--------------------------------*- C++ -*----------------------------------*\
| =========                 |                                                 |
| \\      /  F ield         | OpenFOAM: The Open Source CFD Toolbox           |
|  \\    /   O peration     | Version:  v1612+                                |
|   \\  /    A nd           | Web:      www.OpenFOAM.com                      |
|    \\/     M anipulation  |                                                 |
\*---------------------------------------------------------------------------*/
FoamFile
{
    version     2.0;
    format      ascii;
    class       volScalarField;
    location    "0.8";
    object      p;
}
// * * * * * * * * * * * * * * * * * * * * * * * * * * * * * * * * * * * * * //

dimensions      [0 2 -2 0 0 0 0];

internalField   nonuniform List<scalar> 
87341
(
100.099637402165
100.101649549548
100.09804369261
100.102555538579
100.109572286593
100.109808442302
100.107843698287
100.108444308411
100.108651906397
100.108975081577
100.109144194909
100.108875987019
100.110656678655
100.110202538854
100.112435542629
100.112484507242
100.109996165798
100.106556184413
100.104051633154
100.103717856185
100.103589052067
100.105017686482
100.102823204017
100.104570238472
100.106884847295
100.111036291097
100.105655254747
100.104611694683
100.103854164709
100.103655798969
100.103534084119
100.103956502492
100.104546828287
100.105540664539
100.110783937298
100.106725182775
100.104350552011
100.102529000117
100.104661064175
100.10320510391
100.103390125218
100.10372994936
100.106260304004
100.109692455547
100.112045521823
100.11189388066
100.10514331161
100.104218615045
100.101358607708
100.101461299711
100.101796512828
100.101642646773
100.101582445801
100.101377566327
100.099022770128
100.102425352152
100.105865666834
100.104320599217
100.101057404462
100.100038352797
100.099327980332
100.100008578972
100.099953827365
100.099181541238
100.100098315411
100.101130957031
100.104470260204
100.106077016916
100.10267650747
100.099268097962
100.101705926098
100.101920126691
100.101920829548
100.102054976837
100.101614779981
100.101512904527
100.104523210782
100.105550069331
100.103136860724
100.106332634808
100.109413748645
100.110932153157
100.108788602944
100.108551131836
100.109768868724
100.107929288293
100.1054604645
100.101205269493
100.106668395147
100.095149243091
100.083950401239
100.089957866638
100.091167887825
100.10128685097
100.096120597288
100.097168681292
100.099762031601
100.098742526419
100.098220151427
100.098362669421
100.097663811673
100.102032452079
100.102606263264
100.098445214482
100.098865896636
100.096087080534
100.094943003212
100.095935586723
100.095954087401
100.095013937295
100.096136724361
100.098882433549
100.098586022349
100.102774712735
100.102313749059
100.097834605311
100.098736005655
100.098565950975
100.099028522662
100.100044207137
100.097341173438
100.096206834622
100.101733965169
100.102035908665
100.098697103732
100.10240562773
100.108801415347
100.113790936175
100.106742551598
100.106564865079
100.111381865483
100.126721590534
100.096191734619
100.096758478673
100.081373619788
100.054550277193
100.055440790805
100.051178155369
100.051672344615
100.057820592614
100.088060260719
100.099453734831
100.096242334133
100.095927512877
100.100598743917
100.107238907988
100.089261443214
100.089850941208
100.091182643303
100.100100727888
100.095304385633
100.095302240259
100.100069596663
100.09122431746
100.089922990685
100.089386077665
100.087842820187
100.088326096206
100.091627000934
100.089877142183
100.049982118217
100.052057335557
100.053289852391
100.053059570816
100.052102448024
100.052144091689
100.054275701607
100.054667569945
100.058322934568
100.087671571201
100.082820985284
100.066476848085
100.060760553087
100.060603158351
100.057715548529
100.058665776898
100.053133805926
100.053306619591
100.055660889594
100.05937245494
100.059382053048
100.055676967462
100.05330136027
100.058459321261
100.057556126933
100.05123783517
100.052115478915
100.058511135662
100.058938345828
100.058063771767
100.057752178985
100.058670246744
100.058522785023
100.057650849485
100.058756645607
100.058836673625
100.059503440715
100.059669748607
100.059028649411
100.054309232944
100.055112461124
100.055103923552
100.054358417207
100.053294609022
100.054418618048
100.054037796152
100.057509160964
100.05865787964
100.059418365633
100.05972712344
100.059053201647
100.058981633461
100.059671833849
100.059560640499
100.057421268339
100.057177911211
100.057290863768
100.057474945665
100.057571131315
100.057450132127
100.05925110049
100.058365609929
100.058347366982
100.058940676093
100.058424143634
100.057501420594
100.058652288905
100.057108829266
100.056998460431
100.057196330363
100.057296210392
100.057106805874
100.057148382056
100.057415067859
100.054986586444
100.055046573376
100.05497583723
100.055085220356
100.055153692869
100.055237731689
100.055203306324
100.05517528144
100.057415784894
100.059211312554
100.059516009437
100.059312670693
100.057289003236
100.054967154613
100.054885002284
100.054766555345
100.054805721998
100.054828827727
100.054790192967
100.054856257786
100.052872646417
100.05304666714
100.053095869833
100.052987348079
100.053097914959
100.053240749037
100.053370322278
100.053341567597
100.053311978419
100.053273043184
100.055145144691
100.057461574727
100.057873191522
100.055363523955
100.053541025622
100.053052972104
100.05288835163
100.052794409022
100.052905545929
100.052926656583
100.052819917637
100.050792248513
100.050801992362
100.051181212186
100.051210401832
100.050998398077
100.051126740748
100.051475191872
100.0517194305
100.05165808789
100.051632299253
100.051628571208
100.051303263951
100.050916224004
100.050831958212
100.05108196894
100.051101420189
100.04872795252
100.048123779093
100.048085342135
100.048792278133
100.0489207964
100.048500359258
100.048625815108
100.04927785009
100.049712950635
100.049633552149
100.049619258678
100.049644444271
100.049140141453
100.048408818261
100.04833582972
100.048777899643
100.04627699803
100.046115091564
100.04479821512
100.044616326192
100.046134810307
100.046530665397
100.046391013696
100.046581045801
100.047041284211
100.047817659083
100.047416505125
100.047448773657
100.047815218084
100.046984361746
100.046390354441
100.046157034548
100.041332134276
100.035690443416
100.034597256566
100.03750718427
100.037838021836
100.036251080846
100.036778023724
100.041854522793
100.042906810895
100.039647602432
100.042394287001
100.043767997028
100.043874430891
100.042673106863
100.039720710838
100.042761203892
100.064093062673
100.063528555613
100.064660568555
100.067068234648
100.074585865859
100.0646261467
100.064433264679
100.073748521696
100.071520027561
100.064509895794
100.071457919405
100.083663509011
100.082253961065
100.071317567171
100.06253378065
100.061096238062
100.058479808901
100.063116032984
100.065387437094
100.070582788701
100.064126879417
100.056840666424
100.056459664628
100.053698617451
100.048659105699
100.04793107634
100.052236962429
100.05563153103
100.056726700667
100.060400392815
100.073670146561
100.067067296385
100.071344790423
100.064576815092
100.066092475147
100.060148344808
100.071431358289
100.069882629243
100.068694327925
100.073809770138
100.093653732924
100.130476708563
100.173992865954
100.224430441778
100.275061431271
100.328829365958
100.371447188336
100.403788192756
100.442705591256
100.46778814591
100.481842520714
100.490134172991
100.456272299338
100.460489143387
100.464373198172
100.465326557796
100.463202813626
100.460950332076
100.462377549238
100.471134277531
100.469343126982
100.471610452422
100.474370639719
100.476506187025
100.479079523333
100.476888395313
100.478131863038
100.456622502661
100.470691642175
100.485487424469
100.470325199207
100.462729156153
100.453461742933
100.45288018533
100.455992584711
100.44934592547
100.431777649041
100.440862362729
100.45013466284
100.453091305048
100.444434948887
100.445865207575
100.450969363693
100.459992180244
100.457444307727
100.473054568139
100.423274121845
100.437474152044
100.443256204524
100.44214847062
100.437114655263
100.423709478597
100.428106804657
100.429641548176
100.422044990229
100.417935646745
100.422404911842
100.426327262456
100.426136474408
100.421716255962
100.414656718204
100.419026211525
100.428872035699
100.42768308946
100.470192562161
100.465299074292
100.413684653313
100.416243566299
100.41380922944
100.41000195976
100.418031363961
100.406358979443
100.401751008208
100.412643999916
100.418846396654
100.416707672998
100.416679085152
100.414148431137
100.422384232428
100.415375005363
100.406495145495
100.418460149347
100.427575246417
100.453796472325
100.446610430024
100.456814418364
100.459395323824
100.460121073996
100.460140527407
100.462274297705
100.463275102354
100.466249656287
100.462805134248
100.463350067039
100.465074109726
100.467487908308
100.460486251026
100.467286796996
100.451911727987
100.439527776829
100.438716092694
100.452012943027
100.445831087548
100.438076286027
100.43372666078
100.422047158948
100.414792390046
100.437985035833
100.456194394991
100.456979568167
100.457365359902
100.408693630367
100.408502759424
100.407565552598
100.401354848481
100.394412588057
100.40036650737
100.396969883019
100.390820944301
100.396424446163
100.398933542079
100.395668776936
100.398172074018
100.395437135124
100.398244310398
100.398990075261
100.393242018674
100.397416219193
100.39611242027
100.398950121397
100.395139325142
100.392686533171
100.400713620205
100.405028099986
100.414463691614
100.425725735238
100.428208101462
100.424577131823
100.417853441244
100.423782952137
100.456469550827
100.484747726106
100.469278508152
100.489332965128
100.505286866432
100.469575316244
100.448215842993
100.453214570242
100.471052196767
100.470694428377
100.467455791251
100.500131299538
100.49032720985
100.498790209822
100.485569571182
100.492165596964
100.483075279833
100.482743637717
100.488356706626
100.483311797032
100.496219699836
100.478214445397
100.491816990715
100.487402402339
100.488788240265
100.49219740755
100.502102501052
100.513647607022
100.515754016227
100.49932097342
100.49794508536
100.501779085326
100.5050937547
100.49208684393
100.462908750168
100.431244718715
100.432759006479
100.441116978519
100.44740557234
100.445733487893
100.437516486292
100.426953966544
100.417101903838
100.417761497816
100.401159028401
100.393390441105
100.400829174952
100.404957628185
100.415620191859
100.421437284423
100.40930845174
100.397934819623
100.413608749621
100.418753224493
100.41586918196
100.414553370941
100.410774160468
100.455647355282
100.458129068342
100.459092370745
100.416326054432
100.420755112525
100.416996198561
100.415517119791
100.412445523169
100.409548418609
100.419828515044
100.442644333383
100.450455474974
100.448720924629
100.403142643644
100.405026158029
100.385929629817
100.393210793432
100.408224339163
100.411370375161
100.403170213207
100.389496662391
100.392816269186
100.398305838773
100.411734186684
100.417238404155
100.429695171936
100.459675951372
100.493601798475
100.491306068459
100.475516447968
100.47913936833
100.480883637879
100.49188147802
100.496715977765
100.483114186199
100.483956863379
100.477040088368
100.504599498594
100.501956256836
100.505227444806
100.499865801712
100.484889046701
100.485020076858
100.49812252152
100.495790653549
100.491089703362
100.491765373827
100.494725764209
100.492999610237
100.494338021495
100.475921779826
100.48460127346
100.46150452129
100.448049724782
100.446758674355
100.449213608123
100.462138177617
100.441699643535
100.446661056412
100.444186232534
100.441387776491
100.437363771232
100.434799743689
100.464999900277
100.468366317906
100.469554749139
100.469241857718
100.45915329612
100.464321565248
100.462843035643
100.464079250092
100.463182219607
100.463193490196
100.462736051225
100.461419601473
100.462445630677
100.464982063815
100.46458292036
100.46323095224
100.461519529409
100.462276394313
100.464454353863
100.462929677565
100.459862755089
100.457938226135
100.458107449741
100.460643464297
100.462686093634
100.463529002636
100.462042536739
100.465195827869
100.465946653546
100.466489406797
100.467597057049
100.468776878006
100.467555655388
100.464974604542
100.464552046871
100.463356839074
100.464331110407
100.46446278462
100.46403951095
100.464231653387
100.46454081811
100.464717660784
100.464659062193
100.464671944942
100.464773162393
100.464782565134
100.465090676963
100.46513580973
100.465440062896
100.465184885587
100.465176885505
100.465029554108
100.46478126251
100.464784252083
100.463925745968
100.463328763816
100.462465743918
100.464136439801
100.464901769266
100.465805304607
100.465038773928
100.466021440752
100.467850840191
100.466741575976
100.469555510705
100.468324905335
100.469027773611
100.469159812323
100.469220383229
100.468999417152
100.468605506966
100.468349931436
100.468280421616
100.468300215271
100.46860679986
100.466853993036
100.467150202531
100.467277573243
100.467195787646
100.467895828921
100.467381775969
100.467124564461
100.466126125116
100.46600890748
100.465716598761
100.467919355562
100.468956384919
100.469647165706
100.469501107709
100.469803008473
100.470745187104
100.470265398438
100.470310883724
100.467556798743
100.469146192548
100.469419514196
100.469985447091
100.468987577754
100.467352911757
100.467115299312
100.464102249372
100.463818274631
100.467326510892
100.467094807619
100.467614507186
100.467608374606
100.467632567777
100.468002527606
100.468313489285
100.468199412297
100.46803159388
100.468225118376
100.467414435099
100.465806455621
100.466465182212
100.466321052058
100.464434676416
100.464551221134
100.463121469288
100.463046118732
100.46474368542
100.462603272258
100.461954503523
100.461677830544
100.463631183028
100.464186872076
100.464759153429
100.465526507295
100.465383631014
100.466012423414
100.464939875031
100.466129656448
100.465369799562
100.466683470445
100.462234856273
100.463726270921
100.465783187678
100.467562166073
100.469355427826
100.470926216588
100.473111007306
100.471494558834
100.471706748202
100.469293933661
100.4649187904
100.459338394013
100.465432741078
100.461702421361
100.459453703009
100.458382987035
100.451904112876
100.453790739885
100.455288966895
100.461702197103
100.459832330538
100.462955970673
100.460949762288
100.458848828288
100.462091032982
100.459334657001
100.458140020528
100.461492550243
100.457923850808
100.457587392213
100.460379699712
100.457584771844
100.457762807276
100.457273280942
100.458075715101
100.457593060498
100.461091667679
100.46387557045
100.461392658879
100.465516013414
100.46317340335
100.463899285769
100.463402323504
100.46390297607
100.464554950755
100.464074053377
100.464054360422
100.465214086495
100.465448840118
100.4654592781
100.465245819467
100.465081346997
100.464993060229
100.464898990892
100.464704248984
100.464839000849
100.465090895116
100.465198164337
100.465192031725
100.46519425554
100.464951116131
100.463987369529
100.463898980771
100.464378306709
100.463387882196
100.46168216462
100.46268209338
100.463292350707
100.462530386583
100.460566228445
100.461659962175
100.464634835779
100.464617596829
100.462819593878
100.459522731131
100.461031644906
100.46526429352
100.465868164758
100.465526353513
100.464155369179
100.464664661795
100.462918094958
100.463072914411
100.46391801569
100.464100182369
100.464605736898
100.464389631936
100.463852450938
100.463498703367
100.462695073082
100.461536783203
100.462593312211
100.462508593796
100.46468681217
100.465042092022
100.467354087783
100.466812644131
100.465936196557
100.46471503709
100.465010782209
100.463515707005
100.465921784772
100.467145017227
100.468409347204
100.469352621977
100.468813829022
100.46718319927
100.467084046189
100.465564547499
100.465677196813
100.465872290918
100.464759140022
100.465491146495
100.465153311503
100.465092533089
100.464894699447
100.464618119214
100.46464790204
100.464787844222
100.464432796558
100.463089132612
100.463297071442
100.463989644571
100.463670946776
100.464472573592
100.463751181168
100.462291971488
100.462551571077
100.464317636897
100.465715614959
100.465873741351
100.465811748569
100.465293436639
100.463859873269
100.465175173646
100.465395619058
100.465883755902
100.465496179805
100.46602302377
100.467086127047
100.467954025232
100.46865810441
100.469071371904
100.468805114187
100.468655740817
100.467748521151
100.46736986139
100.46802762288
100.466273493681
100.467211128861
100.466066398726
100.46581464375
100.465650552667
100.465105122
100.464721553309
100.465272425765
100.464952119686
100.465311532
100.465232258705
100.465358610664
100.465545577429
100.464946713348
100.464723396676
100.464414683156
100.463181917118
100.462497720967
100.463666249346
100.463873090673
100.462515146382
100.464246483266
100.461294851494
100.459433464196
100.453952953682
100.44916357079
100.452823542426
100.452170650137
100.451344893108
100.449036360216
100.448288064462
100.450789064561
100.451717347949
100.451799700958
100.452925320249
100.453164202737
100.453993424406
100.452321938478
100.452204683074
100.441694257353
100.443462850557
100.445621691663
100.44877163367
100.453852310486
100.459240807287
100.463990634571
100.461193417069
100.455196566892
100.440300400325
100.424333263314
100.446707732632
100.439271862204
100.431451415801
100.42860037695
100.428692752098
100.427701136079
100.416990523539
100.430112824204
100.444328983277
100.438755251713
100.446044931116
100.440159592527
100.43777520261
100.444810999036
100.437992833713
100.437461184846
100.443566063128
100.435804521056
100.43848273614
100.433457448678
100.441995851612
100.437167802793
100.444885251162
100.446111566744
100.450361913584
100.455404397163
100.459680089858
100.464207051189
100.464443673657
100.463521729372
100.463968168798
100.464450746609
100.462319371424
100.46265991412
100.464913694336
100.464991483975
100.463492054518
100.463278653222
100.461860660479
100.460393857511
100.452358145948
100.439279268396
100.426444316785
100.417605182882
100.410088838345
100.419760914737
100.414698343378
100.417957405144
100.410759270754
100.407657531321
100.405387118959
100.405720704309
100.408176841766
100.408109740635
100.414512728918
100.386725297774
100.37618312767
100.379812801791
100.386990052037
100.407596713592
100.410011358636
100.394842592196
100.378592855889
100.374536572495
100.345785791642
100.349914342379
100.3541600053
100.367711055482
100.360675798385
100.340184287004
100.306044214427
100.288089636463
100.323402383477
100.310555368986
100.306963472655
100.315313478416
100.343785315508
100.350002947329
100.338003496726
100.363987918192
100.385751177501
100.385047120227
100.383737572888
100.383382964115
100.38266972151
100.373540650198
100.398122182506
100.380172359059
100.39432469582
100.390324299992
100.396045639006
100.404016788881
100.416585184454
100.441869954208
100.448628570843
100.457042924769
100.463510807065
100.461299407368
100.454643860423
100.446862043705
100.423798251987
100.405337718604
100.37104838598
100.348163438114
100.334540494444
100.32701987036
100.326184642669
100.344172976484
100.333640631468
100.336968962294
100.325701947325
100.328399759908
100.327081453761
100.326953594029
100.332329390103
100.292229033098
100.282611260971
100.293055949719
100.321803928794
100.366194228682
100.394926514446
100.418720726353
100.437592566391
100.447748220394
100.453576404688
100.45583932336
100.455970581539
100.463170154125
100.495888728827
100.479552056074
100.47499410411
100.474285831126
100.476298577949
100.476775657965
100.481706270086
100.500005313591
100.487665910632
100.477323518978
100.474517410925
100.447403633135
100.430353888646
100.429508298151
100.434049219895
100.45039238934
100.438487286043
100.433181872237
100.428259365162
100.418145719794
100.419120899862
100.430034000949
100.431561361125
100.421062946601
100.423391073518
100.434291563598
100.438526288151
100.441043142207
100.4530105486
100.417171342846
100.415493970143
100.412137282697
100.404509001101
100.405112647961
100.414469926569
100.407677093557
100.406711824343
100.400152559857
100.394618184875
100.401243298979
100.407300107909
100.458155636709
100.464503136852
100.462208529647
100.465907778725
100.463722508055
100.470674409978
100.469943062131
100.473535276985
100.472888644761
100.470255179409
100.466431910257
100.464989268295
100.456371428545
100.461024691966
100.461558736037
100.462110394939
100.461631777231
100.461854828403
100.462371572095
100.463725125112
100.463730200768
100.464549211748
100.46454991598
100.464467504034
100.464442319795
100.46523155156
100.466996783055
100.467639632308
100.468645927154
100.466593400382
100.464221312147
100.461706353798
100.463264507798
100.465585334712
100.468281223265
100.474778754316
100.468914868198
100.467005870164
100.464667098066
100.467009430956
100.467213999416
100.467634191778
100.46805868213
100.468739214226
100.470714545141
100.46779213063
100.467468327006
100.467599104412
100.467113985498
100.466766392769
100.468214639686
100.467492641935
100.467251760194
100.46658422781
100.465829301492
100.46635874796
100.467039317551
100.467049784723
100.467842777127
100.466246506534
100.465877733856
100.46775677576
100.466854579662
100.466858268397
100.466184519712
100.465764096451
100.465237319672
100.46520007177
100.464880839144
100.464666708571
100.464430870832
100.464410212201
100.464306598919
100.464576179145
100.464793140681
100.464446626531
100.464439439754
100.464309829767
100.464406036562
100.46461906001
100.46489362485
100.464862566551
100.465414452182
100.465801464463
100.466326008269
100.466831818483
100.46719181627
100.467844065633
100.466814127687
100.46764221995
100.468018761263
100.467280080486
100.466809231481
100.466160361306
100.465956586293
100.466839582834
100.467527079697
100.468308087228
100.468449784932
100.470777084842
100.472517677312
100.47522643808
100.475820575847
100.475084131584
100.47249671795
100.469584949256
100.469392304728
100.469462727024
100.468533421175
100.468179681303
100.467571538241
100.467122852353
100.466593416651
100.46567201969
100.465286966699
100.46538740436
100.464964195031
100.464561133258
100.464312378828
100.464596260831
100.464220873793
100.464297419751
100.464533392454
100.464867440499
100.464506570855
100.465247519787
100.464862377326
100.464723764431
100.465186446006
100.465641681562
100.465214412099
100.465960247204
100.465426982275
100.465424546297
100.465811485132
100.465214630691
100.464450592576
100.462277926218
100.464028261306
100.464180440374
100.464798380424
100.464972665845
100.465669847502
100.466804404118
100.466910661367
100.466955920874
100.466884374097
100.466838345492
100.466512222089
100.466143007536
100.465519220003
100.466034541927
100.465958564595
100.466974978542
100.465786114524
100.465147862788
100.464459921114
100.464326325684
100.465167641654
100.46516696458
100.465505227337
100.465872768673
100.465976096447
100.466227427829
100.46616923725
100.466819385738
100.467146162753
100.467422215623
100.468199556466
100.467870994435
100.467608252975
100.467871453895
100.465783200188
100.46560045898
100.466352573875
100.466374989011
100.465757851593
100.465503537515
100.465159429613
100.465763467437
100.466042728947
100.466739586188
100.466817535289
100.466802754107
100.465842337569
100.466266788088
100.465981770166
100.465631297157
100.465236865195
100.465851455159
100.466199689889
100.467431880913
100.468305101982
100.468338986473
100.468509302249
100.467341974995
100.467798184311
100.468213595752
100.468245651793
100.468861273916
100.468806958487
100.468683919183
100.469075208895
100.466292812809
100.46589155847
100.464900730211
100.463907834518
100.463547413574
100.462787497852
100.461093478638
100.460477281428
100.461093511335
100.4620592245
100.463210747076
100.463260304779
100.462399504075
100.461249178452
100.461776354427
100.46188732307
100.462212116134
100.463673189466
100.46488373113
100.46465953796
100.463866876561
100.463873326104
100.464122598412
100.464481831769
100.464845733453
100.464840623359
100.465286034315
100.464805098172
100.465302678029
100.46620621877
100.468179868282
100.467968113863
100.469397478687
100.467212263549
100.464459648072
100.462181382607
100.458963672473
100.458351699849
100.45767548894
100.456158215995
100.454493086015
100.453615044771
100.454256239034
100.456284548619
100.4556323277
100.454290267966
100.454932796075
100.456567515187
100.456994427746
100.459281224359
100.456947814177
100.456868886086
100.458254175796
100.460417627667
100.466329120556
100.463136250096
100.460129213344
100.458229393617
100.461468076397
100.463432132038
100.467167914156
100.473123427781
100.469436435712
100.471282984503
100.469834811695
100.469893854431
100.47236733618
100.475202389401
100.468664247222
100.466311344146
100.463988029125
100.462111424669
100.463691746371
100.463657242879
100.463659905517
100.464565952962
100.462787930936
100.459985398882
100.45996396532
100.4589396808
100.458716591421
100.458529200895
100.457528910626
100.456186597677
100.454484049895
100.453503903342
100.454741743064
100.45468901095
100.453832160648
100.453052199923
100.454170835872
100.455825270217
100.457502296024
100.456161124198
100.457594264027
100.458807873335
100.459749486158
100.459351613231
100.45892290425
100.458230592344
100.457512220929
100.456562261901
100.456446507804
100.456713338361
100.456737584235
100.457358152198
100.458572882594
100.457861613014
100.457349740291
100.455999102743
100.455258277816
100.456553726675
100.45524110447
100.455517027539
100.455769677221
100.454772934922
100.454327124844
100.454463473338
100.45517106839
100.456222448318
100.456440306886
100.456815670009
100.457917153808
100.45836645664
100.458684727662
100.459507844814
100.459935258662
100.459507818923
100.459070791418
100.458588489776
100.458137712309
100.457865346774
100.458346425945
100.459414606139
100.45693549019
100.457282469388
100.458265753053
100.459435150809
100.459765914589
100.46011835647
100.460900859143
100.460558164662
100.460101848128
100.459686959742
100.459174560938
100.459846598277
100.459858923675
100.45929599363
100.459895054676
100.460354521673
100.460889372026
100.461087289273
100.460772922124
100.460542735848
100.46059227723
100.461053111951
100.460643405419
100.460357375366
100.460128713307
100.461327378907
100.461328779112
100.460716506343
100.459208175948
100.458781151338
100.460915928374
100.461619049326
100.461101459154
100.458849735181
100.458083181518
100.458574688865
100.456737227063
100.455959188654
100.455393174021
100.458191091421
100.458864873218
100.458955347851
100.455491570032
100.454390589894
100.453829066105
100.453860847496
100.452949257234
100.45386313427
100.454294349081
100.454172773457
100.453155300773
100.45291267963
100.453836915691
100.453944042276
100.4551369069
100.455060033712
100.455733799766
100.456756865798
100.457910230705
100.458751027254
100.459652997516
100.45958789022
100.460108123156
100.458918060166
100.458359146823
100.45796874223
100.459399080802
100.45942004397
100.459726611301
100.460055813216
100.460479994091
100.46103969224
100.461039602686
100.461521103672
100.461150287691
100.461018951904
100.461092940778
100.461995884019
100.46183379923
100.461433778844
100.461248051731
100.462455612221
100.462945567603
100.462721587645
100.462538088615
100.462578633668
100.462434149902
100.463191228057
100.464722698082
100.46488840267
100.465070358912
100.462884875065
100.461630859703
100.460870324426
100.460669435194
100.460168022029
100.457803574777
100.455537214381
100.453828510211
100.453422867459
100.454356428536
100.454361758127
100.456388380089
100.45436013858
100.454595878812
100.456116341971
100.457797681253
100.459196173343
100.460204346941
100.461428520801
100.463407398601
100.466882234381
100.470233531362
100.476938413729
100.475918564381
100.493087654438
100.485655837049
100.451330337288
100.418275760695
100.380141402277
100.359152125513
100.373441775532
100.370795067261
100.369031801373
100.3693822167
100.370208457776
100.371059792991
100.372127397303
100.373509203985
100.37505954602
100.376506184573
100.377678297795
100.378508156358
100.378947122557
100.37767887582
100.376273831847
100.37476327948
100.373229220102
100.371769773263
100.370437625802
100.369280257153
100.368304950291
100.367480859745
100.366778440945
100.366188098022
100.365740643553
100.365526465144
100.365636521865
100.366162556839
100.367241695971
100.368795638927
100.3704690312
100.371835429175
100.37236641825
100.372268684347
100.372439531632
100.37245221128
100.372467802066
100.372495047969
100.372525160804
100.372536015198
100.372504171682
100.372641843997
100.372624378301
100.372672870966
100.372573950336
100.372566325293
100.372483182352
100.37246422603
100.372478926955
100.372487986486
100.372442953499
100.372473885078
100.37242111227
100.372389757232
100.372375285428
100.372357404633
100.372230319835
100.372181675131
100.372149265347
100.372291332159
100.372303616318
100.37232427755
100.372357372245
100.372401908303
100.372366638489
100.37245208922
100.372413205681
100.372506071754
100.372353664164
100.372258808958
100.372132023124
100.372241943284
100.372136773659
100.372379616008
100.37234821099
100.372382486133
100.372297216977
100.372294339734
100.372262061569
100.372233503338
100.372196311678
100.372198592096
100.37205914817
100.372008889097
100.371847785182
100.371518514091
100.371862217515
100.372012922164
100.372028976781
100.372137264362
100.372140129776
100.372152633622
100.37222449024
100.372261715013
100.372238093375
100.372345601934
100.372307202168
100.372258285849
100.372196918283
100.372099084749
100.37225659358
100.37212674295
100.372250942744
100.372282095009
100.372177619619
100.372202361763
100.372176836673
100.372127925499
100.37207821403
100.372072300028
100.371970589373
100.371943952865
100.371784753429
100.371362318642
100.371820853078
100.371939098874
100.371956188926
100.372020309564
100.37203109265
100.3720786391
100.372107370714
100.372139693684
100.372083007744
100.372182979809
100.37209264188
100.37214378193
100.372205641112
100.372184627533