/*--------------------------------*- C++ -*----------------------------------*\
| =========                 |                                                 |
| \\      /  F ield         | OpenFOAM: The Open Source CFD Toolbox           |
|  \\    /   O peration     | Version:  v1612+                                |
|   \\  /    A nd           | Web:      www.OpenFOAM.com                      |
|    \\/     M anipulation  |                                                 |
\*---------------------------------------------------------------------------*/
FoamFile
{
    version     2.0;
    format      ascii;
    class       volScalarField;
    location    "1.4";
    object      p;
}
// * * * * * * * * * * * * * * * * * * * * * * * * * * * * * * * * * * * * * //

dimensions      [0 2 -2 0 0 0 0];

internalField   nonuniform List<scalar> 
79506
(
100.123620406515
100.125705838849
100.121938453991
100.126481820445
100.133437181843
100.133676964907
100.131736481933
100.132343437089
100.132732837895
100.132906344778
100.133301033515
100.132922820924
100.13460293858
100.134042033844
100.136170349966
100.136196023461
100.134134344566
100.131254336976
100.128042815059
100.127661784762
100.127763437405
100.129525189628
100.127112007891
100.128307607466
100.130249448634
100.135084592764
100.129686669307
100.128674357047
100.127918899423
100.127564453383
100.127657687285
100.127722421144
100.128550901321
100.129509741931
100.134994807137
100.130009458863
100.128025568028
100.126768624771
100.129149469649
100.12735653057
100.127293385633
100.127681289956
100.130905515081
100.133827461446
100.135779122755
100.135653562824
100.129005768671
100.127813041943
100.124425310472
100.124932990699
100.125461551627
100.12530176132
100.125394172447
100.125401881416
100.123160070676
100.126388004284
100.130079416092
100.128596152098
100.125211807671
100.124269417847
100.123244481287
100.124090507306
100.124173901559
100.123511324746
100.124391758853
100.125399104886
100.128902192877
100.130375462629
100.126654225804
100.123439923998
100.125738355929
100.125760727547
100.125610252315
100.125733810443
100.125102182034
100.124598682294
100.128124999347
100.129374160861
100.12696008668
100.130277640774
100.133453122331
100.13525038204
100.133264400884
100.132704007229
100.133773789343
100.131922209662
100.12944043127
100.1252498397
100.130701602652
100.119117125104
100.107901918314
100.114081673444
100.115696764726
100.12495727149
100.119113976144
100.120260385647
100.122982211617
100.122300202928
100.121802643531
100.121830447006
100.121797731854
100.126377658365
100.127180876726
100.122648576296
100.123010421487
100.120477619468
100.119292149231
100.120186701961
100.120198823806
100.119323807203
100.120588321422
100.123222988573
100.122928034199
100.127463853797
100.126673881975
100.122082253271
100.122189289772
100.122176351032
100.122618683735
100.123279045899
100.120450891263
100.119233505375
100.125405169153
100.125883053608
100.122437061382
100.126285027508
100.132805347774
100.138021594388
100.131467824435
100.130933890629
100.13548348906
100.150947927674
100.11983412901
100.120344779928
100.105314624266
100.078662801445
100.079518643833
100.075208133103
100.075916446901
100.082110877571
100.112340299187
100.122605155146
100.119708838722
100.119469133197
100.123618636624
100.129834160897
100.113113854123
100.113671948325
100.115090480414
100.124430452047
100.119483706635
100.119507841852
100.124549014707
100.115098114437
100.113803936059
100.113304588333
100.111892228185
100.112618591704
100.116147635215
100.113957982882
100.074040925975
100.076095872265
100.077391533542
100.077142189104
100.076067164227
100.076118676998
100.078018275094
100.078446646435
100.082558228037
100.11169237197
100.106839441487
100.090523507275
100.084744486702
100.084672540116
100.081987305532
100.082783440272
100.077284254125
100.07739069714
100.079534350872
100.083266414354
100.08317557275
100.079367891257
100.077230736503
100.082585775372
100.081802202785
100.075431116941
100.07603867531
100.08255888678
100.083015969848
100.082155752366
100.081850859075
100.082723812009
100.08259187408
100.081859451876
100.083092020155
100.083176655466
100.083666121001
100.083783981935
100.083086189778
100.078289940748
100.079095805043
100.079065178373
100.078250787586
100.077247069794
100.078196885078
100.077744966042
100.081673804369
100.082952824465
100.083583455788
100.08387041947
100.083177008257
100.083123229156
100.083839609729
100.083753345104
100.081619252065
100.081415598417
100.081505638376
100.081591700277
100.081664018273
100.08151792145
100.083345017322
100.082431981115
100.082421587473
100.083013168342
100.082565072788
100.081765413918
100.082980420405
100.081298639736
100.081206539228
100.081365042527
100.081466344428
100.081279217253
100.081329608925
100.081634880245
100.079201991884
100.079216397847
100.079163755999
100.079239011543
100.079221818545
100.079267824457
100.079196891374
100.079157577159
100.081474282104
100.083308269636
100.083637540352
100.083479091588
100.081409706045
100.0790331618
100.079017036915
100.078915192705
100.078961565912
100.079004811372
100.078984424576
100.079052287441
100.077163689793
100.077283897927
100.077302129697
100.077249547615
100.077310263663
100.077293362038
100.077313838026
100.077241571858
100.0772040565
100.077202814803
100.079158764609
100.081534480626
100.081941587857
100.079338388774
100.077331383994
100.077105046671
100.077082839774
100.077019994749
100.077083808643
100.077123716353
100.077095126456
100.075388956626
100.075464583052
100.075570207203
100.075580646037
100.075526288093
100.075585196092
100.075568867129
100.075574665546
100.075503369687
100.07546684976
100.075463420615
100.075383924626
100.075366084181
100.075329972851
100.075385162458
100.075409516767
100.073661225375
100.073638860952
100.073715612091
100.073819919625
100.073808794648
100.073766645981
100.073838625822
100.07382104716
100.073823218809
100.073763922152
100.073729549525
100.073719013092
100.073647537146
100.073635178351
100.073613460231
100.073651580159
100.07187629824
100.071951675638
100.071814319332
100.071812026374
100.072001621814
100.071983251665
100.071948503314
100.07203804429
100.072025056907
100.072032801969
100.071986031079
100.071954202622
100.071934753056
100.071867454923
100.07185371456
100.071839144682
100.070026668293
100.070023385263
100.070135360169
100.069840273713
100.069732517088
100.070017469348
100.070092409842
100.070117315012
100.070228727076
100.070224219805
100.07023846105
100.070203357356
100.070172255187
100.070143572298
100.070079550793
100.07005276765
100.068233108974
100.068172631344
100.068105896295
100.068090214233
100.068301899841
100.06823557563
100.068040002721
100.068230057467
100.068311725825
100.068438808015
100.068454054834
100.068475993149
100.068447994839
100.068408823321
100.068362406703
100.068284735163
100.066470711428
100.066375181761
100.066265090997
100.066173888838
100.06596762117
100.066446727916
100.066557469782
100.066219892462
100.066455608035
100.066551264039
100.066696652363
100.066736731468
100.066770003476
100.066742920208
100.066675950653
100.066587273968
100.064805513637
100.064609094254
100.064441159894
100.064250597985
100.064173837244
100.06392614371
100.063923305224
100.064186147506
100.064460432965
100.064682961504
100.06482883809
100.065024857056
100.065102860674
100.065153598759
100.065113042381
100.064984769716
100.06333809411
100.062976872446
100.062635388334
100.062348621331
100.062026733554
100.061926283367
100.061808145396
100.061635524974
100.061925960928
100.062470415071
100.062787404815
100.063129945114
100.063437969181
100.063572869771
100.063654390148
100.063580069513
100.062147089
100.06168902817
100.060989653967
100.06042013929
100.059902949891
100.059378483285
100.05917419869
100.059119818504
100.058961931978
100.059343049937
100.060099594788
100.060693717544
100.061409090301
100.061908119899
100.062146454603
100.062269606617
100.060885674507
100.06068010895
100.059842636318
100.058600738953
100.05765126307
100.056722966141
100.055882729328
100.055527501724
100.055450931589
100.055080564452
100.055768277404
100.05733799342
100.058247437458
100.059445778089
100.060312575583
100.06078233503
100.059151434245
100.059120547261
100.058994629816
100.057415815669
100.055079355605
100.053596445131
100.05214426828
100.050804012851
100.04988520905
100.049889091294
100.049208953685
100.050362534459
100.053254248151
100.054648377899
100.056796444618
100.058405141881
100.054950119794
100.056223444174
100.055399443137
100.056051383952
100.053237912965
100.048360560486
100.04600333194
100.044097243847
100.041918604863
100.039792635641
100.040502833139
100.039565120684
100.041122555339
100.045842253122
100.048075228243
100.052029950353
100.045016014744
100.049772004454
100.05146973406
100.048803404118
100.0513155553
100.0464594775
100.036160439209
100.033434734991
100.031381921327
100.028470378997
100.023931530546
100.026076927858
100.025042564745
100.027502419043
100.034598958451
100.037197294506
100.062835786751
100.068752117579
100.075422643698
100.085381396455
100.076625231228
100.07632885729
100.067923512523
100.055733154526
100.055615618865
100.046173528581
100.041837755704
100.042738837775
100.034386509365
100.074827014776
100.099828407667
100.103337017635
100.085092320756
100.042441731133
100.038378328371
100.142255717953
100.228875178003
100.167260205619
100.171575109645
100.168459978491
100.159356931502
100.153611411117
100.20215639458
100.243156692745
100.150714209495
100.163566425499
100.228359934165
100.182323802238
100.180329206219
100.163673409393
100.150808589284
100.148743868966
100.137782321655
100.175584183903
100.11660771179
100.111453870087
100.165909682817
100.126788477101
100.142016847078
100.156896040847
100.249275996858
100.266873412475
100.270487339797
100.26010962326
100.272494223186
100.281504512605
100.297459096048
100.334719780064
100.351863418325
100.253692813403
100.288987226874
100.381717229542
100.331504671949
100.323394330742
100.311079628956
100.330144009958
100.271823507391
100.254542542069
100.300019811941
100.268028766363
100.268381856845
100.270622387629
100.289162523887
100.283915115085
100.257639612752
100.252220376633
100.253590714018
100.337507934388
100.381489031066
100.354195688506
100.356193861211
100.387207050591
100.374678859352
100.351175110946
100.44133499044
100.467517800431
100.440406522483
100.459120044199
100.463411151906
100.424110565298
100.378994346166
100.419752889252
100.36986772568
100.456941159519
100.478621703243
100.463388466561
100.47352841133
100.492083368278
100.465171473542
100.413803029303
100.437876032856
100.467026157879
100.428427308991
100.449558468776
100.454642362961
100.41731164697
100.452558009752
100.430404514399
100.357829482162
100.343897839467
100.410333822442
100.415978338302
100.369731943218
100.398539185656
100.392583281425
100.360977723399
100.393866823449
100.365657019739
100.357580546348
100.381782309098
100.353575701288
100.3523738678
100.410664411147
100.455698537222
100.439103358822
100.45274348083
100.480098014399
100.477994402735
100.453353794202
100.427463105631
100.42813030787
100.487136310204
100.50679838329
100.503316323896
100.501584813646
100.501047222982
100.491280462282
100.479667462252
100.507751984442
100.509996765757
100.510198505415
100.503070764491
100.498644955966
100.494664114944
100.486978928553
100.486872556949
100.489945520292
100.495751105188
100.486338041821
100.500134000632
100.496701550919
100.494744950379
100.494208734075
100.494643567599
100.494950123246
100.496524350722
100.496945078179
100.493921923312
100.488053666321
100.494354815507
100.498081836824
100.488534316039
100.489361225592
100.489891554522
100.488502472001
100.474643456337
100.456778332986
100.470821335805
100.460450091799
100.449406725356
100.44550269962
100.449739562574
100.456752675352
100.428647086026
100.422931091526
100.447397337058
100.434213483731
100.452452652824
100.485281681249
100.489521167739
100.493602513239
100.505028349151
100.513528558838
100.511743475467
100.517078583925
100.517164503434
100.50969073216
100.509403185222
100.511296971858
100.515479931844
100.513674273079
100.513740978991
100.512642588483
100.514011058858
100.506909390376
100.508842385385
100.513096573277
100.513488250498
100.514508889821
100.511061501786
100.505917361599
100.506465062679
100.507436600952
100.503097736872
100.497948287825
100.498219617543
100.496743497707
100.495858539428
100.492531706036
100.499765682306
100.498220450082
100.496204513354
100.495296857336
100.493810953512
100.494431350382
100.491961011053
100.49139139809
100.492578654222
100.491944391467
100.490366376513
100.491505178104
100.493007588103
100.492394421142
100.495555725036
100.496714714335
100.496539429267
100.497756989414
100.497519228835
100.500010696297
100.497501927803
100.497494715494
100.503465553761
100.501478856441
100.498392517223
100.50268205164
100.498666147465
100.499595298985
100.492007101281
100.487083465625
100.497782439797
100.495117872171
100.481845677167
100.489023418069
100.487194708186
100.478570073893
100.488612576552
100.486466920005
100.482720868819
100.497708858479
100.492531443357
100.491436270803
100.491887479219
100.487651404815
100.497438961491
100.504279712616
100.504436787261
100.510793751918
100.513881412015
100.511910602447
100.515868212577
100.515012318292
100.513700901788
100.513829974113
100.513423575499
100.513390454988
100.513273116643
100.514064910745
100.514070725813
100.513459614698
100.513168542409
100.512255280834
100.512682537645
100.511786728501
100.508794903302
100.510377644328
100.51141706467
100.512152312534
100.508160141946
100.508866108452
100.506435599024
100.504907363193
100.504516297882
100.500568422864
100.49763975098
100.497693377613
100.500083192572
100.502686933176
100.507587453247
100.504787832019
100.502923878929
100.500805246951
100.49867565878
100.496992280305
100.49756413517
100.49967502289
100.503476816481
100.509372445787
100.519829442501
100.535433968122
100.571656430945
100.578792956832
100.514140633863
100.468133672203
100.428363417337
100.383341781484
100.357820050598
100.3750437655
100.372500104636
100.370656530534
100.37110070618
100.371958738506
100.372781062346
100.373828599961
100.375263262215
100.376968796686
100.378699698322
100.380206819549
100.381310009317
100.381904985119
100.380708527781
100.379367653253
100.377924410461
100.376399475618
100.374853663276
100.373388193525
100.372091082029
100.370952821597
100.369927265823
100.368978889482
100.368074961496
100.367222814459
100.366487998443
100.36600457749
100.36591147983
100.366325517914
100.367271752425
100.368715705463
100.370345775653
100.37175644135
100.372480825237
100.372646105134
100.37266458101
100.372738630735
100.372763738378
100.372781579513
100.372818979972
100.372849818065
100.372846437981
100.372909518942
100.372919148803
100.37303705282
100.373142921398
100.373106188036
100.373012147316
100.372873628965
100.372873001759
100.373064597999
100.372901657479
100.372907081064
100.372944220283
100.372821950855
100.37273342845
100.372874688388
100.372751674233
100.372858820415
100.372841425149
100.3728495691
100.372727092735
100.372768798781
100.372746143073
100.372726956313
100.372688745401
100.37265677208
100.372659727768
100.372583499005
100.372449717799
100.37240998708
100.372419103113
100.372417411991
100.372485372712
100.372539750254
100.372613599123
100.372595801658
100.372620374133
100.372660740546
100.372724576244
100.372729571596
100.372756895943
100.372795527655
100.372838022699
100.372890507991
100.372915621056
100.372951637934
100.372910034516
100.373153476808
100.373223849214
100.373253217592
100.373310935052
100.373281539851
100.373183403788
100.373094624969
100.372987360939
100.372614189567
100.372115680473
100.371949648467
100.372149719297
100.372347114535
100.372756020142
100.372519463441
100.372271023498
100.372102549961
100.372346663854
100.37234016916
100.372659844496
100.372720443445
100.37260659411
100.372683088801
100.372667415351
100.372716510826
100.372615346471
100.372626454281
100.372708823154
100.372647406329
100.372632653289
100.37269186631
100.372737015657
100.37283708355
100.372844150033
100.372915549823
100.372962489883
100.372972397917
100.373035084945
100.373074654422
100.373302974556
100.373385262923
100.373487511912
100.373559363833
100.373520528252
100.373659840986
100.373259496751
100.373140451601
100.372842136035
100.372874773467
100.373118774368
100.373164333437
100.373407795742
100.373558876216
100.373737056365
100.373764548834
100.373767729676
100.373584972613
100.373327691109
100.373212816833
100.373321461421
100.373393576057
100.373545072668
100.373432206191
100.373368929574
100.373152440116
100.372802751644
100.372633064008
100.372860067065
100.372859350794
100.373007747401
100.373037779861
100.373105718264
100.373197596057
100.373280831317
100.373594385249
100.37377643611
100.373932701163
100.373966052852
100.37397564738
100.373705518649
100.37342071946
100.372911228666
100.372349882041
100.371818984734
100.372057975284
100.372280369462
100.37230368571
100.372159388753
100.371372831171
100.370691792066
100.370060304273
100.370319301478
100.370684836628
100.370565685052
100.370485264009
100.370801737509
100.371123095654
100.371233285433
100.371269705566
100.370981234128
100.37132271981
100.371010803297
100.371778187785
100.372582851767
100.372840805849
100.372757060463
100.372770139146
100.37279476451
100.372837136785
100.37290472208
100.372959069929
100.372963154929
100.373021229394
100.373080472092
100.373138935962
100.373136996575
100.37326766182
100.373411797299
100.373749271348
100.373942798194
100.374083350877
100.374064752731
100.374019824769
100.373797343018
100.373482840801
100.372999889648
100.372424161435
100.371787849375
100.370959944238
100.370529465695
100.370421238572
100.370278538811
100.370194498693
100.369359095095
100.368997206876
100.368844310535
100.368698088548
100.368670573606
100.369140896973
100.36923181659
100.368728776364
100.369076918195
100.369597851409
100.369658817876
100.369759517897
100.371028310412
100.371847300759
100.372527397943
100.37287011542
100.372891035494
100.372859519165
100.372881108002
100.37292062711
100.372996157609
100.373039553798
100.373091320596
100.373146143888
100.373171277332
100.373152623028
100.373330286599
100.37355168579
100.373895769061
100.374105070197
100.374286183051
100.374218967546
100.374197350457
100.374234985539
100.374362268818
100.374223553882
100.374018078507
100.37364275063
100.373239928968
100.373331943105
100.373723555654
100.374047990922
100.374257214784
100.374454570508
100.374385704032
100.374251465781
100.373904823899
100.373566451598
100.373553687861
100.373073736774
100.372515068677
100.37187350879
100.371047360779
100.370657646235
100.370243156309
100.369998672681
100.369934804412
100.369676094619
100.369412387301
100.369133415678
100.36945231203
100.369789262358
100.370071554677
100.369831477956
100.369477604998
100.369260431101
100.368804974461
100.368819440338
100.369011216025
100.368753527426
100.368198212978
100.368444455203
100.368535342114
100.368086212946
100.368151288894
100.367610610809
100.367195754697
100.366833103483
100.366633931901
100.367118696542
100.36749647422
100.367801773369
100.367354126867
100.367477427163
100.367704837156
100.367375996003
100.368125926043
100.366535339026
100.365038975648
100.363843121345
100.363873150214
100.364508257317
100.365471630654
100.367610148143
100.365086325718
100.364230963491
100.363395067707
100.359650529811
100.356740081661
100.361682057206
100.360875978458
100.360902446363
100.358633595223
100.360084719234
100.357061236815
100.359081643969
100.360801484913
100.361063855563
100.362194877
100.363768073753
100.364867383834
100.366115384919
100.367018860944
100.366392942408
100.368359670039
100.365357535188
100.372752274223
100.371739641636
100.370312695085
100.368601143946
100.3667242944
100.365778322692
100.368697923076
100.370272108328
100.365462690034
100.362703303302
100.362105511834
100.351434790042
100.355028979339
100.35192840813
100.355515400262
100.357091519016
100.368346833191
100.370168392965
100.371947886957
100.372211313448
100.372220229208
100.372305376748
100.372343598015
100.372357402365
100.372380727243
100.372412811642
100.372494119089
100.372453788599
100.372650802556
100.372657573218
100.372607982995
100.372531258218
100.372520187579
100.372644853735
100.372539291921
100.372624047971
100.372581156259
100.372390577574
100.372445855082
100.372406504083
100.372373306806
100.37233734445
100.372329245927
100.372268338419
100.372142125737
100.372178349506
100.371811074225
100.371262740616
100.372015640025
100.372193430027
100.372180123192
100.372258789859
100.372275193166
100.372283762232
100.372307978781
100.372340867992
100.372374554632
100.3723860913
100.372470606685
100.372441854457
100.372508067616
100.372561742415
100.372530004917
100.372473546575
100.3724481335
100.372528002883
100.372121234828
100.372002399443
100.372236224842
100.372127773244
100.372386014716
100.372274986202
100.37235563356
100.372389351915
100.372296070849
100.372329878338
100.372355792372
100.372363356088
100.372321969168
100.372262031262
100.372284228602
100.372242190463
100.372251811271
100.372158714685
100.372163172608
100.371969688053
100.371327357113
100.372155097444
100.372184858239
100.372206181044
100.372264544053
100.372255913788
100.372294436171
100.372324649116
100.372330543821
100.372318984622
100.372283140991
100.372373960407
100.372290451421
100.372148358066
100.37181337996
100.371339278054
100.37190744754
100.3717790385
100.372285716446
100.372056322556
100.372289500019
100.372354061856
100.37229436229
100.37231247076
100.372350932092
100.372305682347
100.372256486221
100.372236633353
100.372244766209
100.372205780272
100.372179900514
100.372100033622
100.372136484051
100.371050443511
100.369454524666
100.371501792526
100.372206705689
100.372143071601
100.372210259897
100.37225563452
100.372242267291
100.372262803569
100.372317621497
100.372348064201
100.372321632921
100.372289644019
100.372323705335
100.372238849417
100.372039569955
100.372352522006
100.372351851186
100.372330391857
100.372322829071
100.372330232951
100.37220802437
100.372088729148
100.371552457591
100.372231068031
100.372094971261
100.372359967442
100.372300841229
100.372374306285
100.372361770307
100.372360113013
100.372307332592
100.372372466617
100.372272113045
100.372264473063
100.372249425242
100.372222370929
100.372149742115
100.372210122213
100.371628093295
100.369969724017
100.372041976008
100.372256898967
100.372218614573
100.372262384447
100.372285967028
100.372242793393
100.37237203035
100.372401996134
100.372275621885
100.372274329613
100.372260593283
100.372217364456
100.372187913563
100.372204431537
100.371793168421
100.370075671579
100.368761409669
100.371028072284
100.372122507286
100.372240311503
100.372254956147
100.372274962167
100.372340514608
100.372257286062
100.372437144574
100.372338704771
100.372419917079
100.372427839386
100.372352536744
100.372240761165
100.371737896057
100.371208133658
100.371822110796
100.372298790265
100.372294901067
100.372518799816
100.372451569244
100.372495064932
100.372487597415
100.372455319935
100.372518974681
100.372329126849
100.37236952582
100.372310120554
100.37230548976
100.372308092926
100.372296096642
100.371420244959
100.369930273987
100.372175610539
100.372476563583
100.372407943699
100.372378883625
100.372472239542
100.372337242725
100.37257399808
100.372448369253
100.372566860543
100.372615096642
100.372580545443
100.372425228603
100.37198871147
100.372473804697
100.372538706643
100.372701610527
100.37266839128
100.372679775325
100.372635532806
100.372574819762
100.372636747459
100.372432419333
100.37247409595
100.372435287099
100.372438666052
100.372434249931
100.372442082732
100.372080157746
100.370432514087
100.369511263583
100.371822744243
100.372503454049
100.372520652854
100.372523409871
100.372522298146
100.372568559484
100.372467272044
100.372679114462
100.372560609739
100.372700970454
100.372764672843
100.372742056764
100.372629046421
100.372114024596
100.372594732803
100.37265134582
100.372771188203
100.372785105385
100.37282546111
100.372682209228
100.372737748691
100.372780661317
100.372710761148
100.372613980062
100.372573377754
100.372546700531
100.372628340572
100.372580739185
100.372605621616
100.372585399739
100.372433783823
100.371790737745
100.370126079497
100.369691560989
100.371706779008
100.372480095873
100.372640977298
100.3726817171
100.372667130235
100.372642339937
100.372667820766
100.372632346649
100.372822215906
100.372739377314
100.372808742676
100.372877189966
100.372861001726
100.372711183282
100.372264392743
100.37264385405
100.372849035712
100.372867616638
100.372802392443
100.372872998375
100.372921520347
100.372906801805
100.372788491827
100.372324882323
100.372642964488
100.37274128029
100.372794748572
100.372906635469
100.372938884657
100.372785744699
100.372848180569
100.372744144528
100.372768102088
100.372872361128
100.37267067885
100.372699272653
100.372779276229
100.372733126289
100.372758484893
100.372781328045
100.372785010676
100.372248614671
100.371644317415
100.372858717117
100.372892201821
100.37284181362
100.372813248075
100.3728370606
100.372784231282
100.372791505548
100.372856668189
100.372880669479
100.372876075611
100.372923610711
100.37289473972
100.372618427655
100.372753330678
100.372867065214
100.372841453126
100.372866917455
100.372857255009
100.372944127751
100.372817551265
100.372866243803
100.372867411139
100.37289781656
100.372937634184
100.372925741293
100.37309415187
100.37224198251
100.372273626448
100.37308822622
100.373018605456
100.372986354522
100.372970747252
100.372935991333
100.372929225171
100.372886203273
100.372963772495
100.372875860975
100.372904798139
100.372928578053
100.372835340745
100.372623575881
100.37219808307
100.372581061859
100.372786410519
100.372877836055
100.37286009841
100.37293336658
100.372935924471
100.372829691728
100.372682253889
100.37222464238
100.37259929595
100.372804967647
100.372909517095
100.372902019644
100.372916849834
100.37294881493
100.372998874549
100.37292556921
100.372950858248
100.372971880504
100.372995075682
100.373016289655
100.373070990963
100.372998740986
100.373244086758
100.372559634552
100.373099438401
100.373241545312
100.373143838904
100.373101356905
100.373081488226
100.373054184689
100.373026939498
100.373007896332
100.373057564725
100.37296849455
100.372983764811
100.373003360902
100.372914348797
100.372800363896
100.372339214663
100.37268388975
100.372875827897
100.372951053593
100.372963322446
100.372989011701
100.372965087228
100.372932456827
100.372951329032
100.372669780476
100.372324932522
100.372781998317
100.372995718025
100.373040635296
100.373047587702
100.373127513828
100.373083555028
100.373010144105
100.373035285683
100.373037889242
100.373064837537
100.373066100855
100.373021539991
100.373059283699
100.37308859197
100.37315325376
100.373125264175
100.373190568106
100.373071757997
100.373323213767
100.372761045624
100.373464665386
100.373246140232
100.373342556561
100.373269728373
100.373252653202
100.373252067525
100.373166721899
100.373125875334
100.373111180959
100.373124709056
100.373052158147
100.373116257874
100.373200804409
100.373287107995
100.37319755646
100.373152542097
100.37326452734
100.373370584145
100.373300693787
100.373338399056
100.373322005466
100.373477281232
100.373655381532
100.373667362293
100.373739312787
100.373590832051
100.373317103946
100.37327028151
100.373380505534
100.373254069219
100.373288429578
100.373202112656
100.373263294454
100.373354782382
100.373324567764
100.37341096516
100.373381370953
100.373520707947
100.373353342158
100.373675312783
100.373501921133
100.371785219147
100.372441683473
100.370538746824
100.37132089895
100.369588307765
100.370448997301
100.368818712057
100.367766726651
100.368340462854
100.367468245973
100.368312534984
100.367538570646
100.367088103004
100.368100117804
100.367743477707
100.367575393445
100.369215548193
100.36926383932
100.369377758606
100.371122616491
100.37124290319
100.372217488751
100.372293173286
100.372379269326
100.372416887283
100.372488826179
100.372478964756
100.37254075652
100.372564981134
100.37262337945
100.372587659587
100.372699384468
100.372649177514
100.37268667601
100.372734493646
100.372694161625
100.372596144064
100.372497112542
100.372680734617
100.372659163898
100.372715289832
100.372440385817
100.372319993144
100.372540934592
100.372382727871
100.3720140293
100.371603368447
100.371621512947
100.371910841604
100.371955116022
100.372458619882
100.37231694282
100.372038451892
100.371553244056
100.370911271276
100.370170984299
100.370718993312
100.37094794926
100.370814531455
100.371378388943
100.371435316516
100.371528763561
100.371263669598
100.371514935847
100.371948985565
100.372070195704
100.372237309245
100.372199119355
100.372323585421
100.372332809971
100.372253092519
100.372264801063
100.372298414441
100.372320849314
100.372364847901
100.372386523733
100.372395654726
100.372458999433
100.372465924082
100.372481244835
100.372487381571
100.372524823773
100.372572944033
100.372592833346
100.372620869786
100.372678296611
100.372675609925
100.372805956475
100.372806241886
100.372735714838
100.372788119457
100.372591078413
100.372627131394
100.372623512113
100.372642313115
100.37260980668
100.372573903025
100.372793907004
100.372784101562
100.372779169313
100.372818212805
100.372860198978
100.372911372014
100.372961813505
100.373088550743
100.373144613832
100.373212544461
100.373273439794
100.373388467489
100.373465685405
100.373633556794
100.373950401194
100.374218802022
100.374424070306
100.374597656779
100.374503722209
100.374368935292
100.374037122032
100.373606654881
100.373232920296
100.373418631805
100.373001555531
100.372548025026
100.371956388918
100.371134290144
100.370782755259
100.370386296389
100.37017271275
100.370137567247
100.369984066702
100.37033653728
100.370076849213
100.369713161976
100.369352226137
100.369202097055