/*--------------------------------*- C++ -*----------------------------------*\
| =========                 |                                                 |
| \\      /  F ield         | OpenFOAM: The Open Source CFD Toolbox           |
|  \\    /   O peration     | Version:  v1612+                                |
|   \\  /    A nd           | Web:      www.OpenFOAM.com                      |
|    \\/     M anipulation  |                                                 |
\*---------------------------------------------------------------------------*/
FoamFile
{
    version     2.0;
    format      ascii;
    class       volScalarField;
    location    "0.6";
    object      p;
}
// * * * * * * * * * * * * * * * * * * * * * * * * * * * * * * * * * * * * * //

dimensions      [0 2 -2 0 0 0 0];

internalField   nonuniform List<scalar> 
80683
(
100.070047946383
100.072018039422
100.068856760975
100.073182702382
100.080208909036
100.080345455142
100.078398771346
100.078949369415
100.078934421753
100.079314325377
100.079811659216
100.079580393099
100.081305173611
100.080920244802
100.083460602979
100.083462035969
100.080032908601
100.075218058486
100.074131567381
100.07408253249
100.075085737175
100.074941034606
100.074157333824
100.075596846258
100.082043498175
100.082092906218
100.076378568331
100.074572002807
100.07446640038
100.073753393526
100.073621571853
100.074607093214
100.074557569656
100.076307945274
100.081856804117
100.081687606142
100.075490547686
100.074109694568
100.074843023677
100.074797143431
100.073915859301
100.073966170444
100.075090191976
100.079829777572
100.083101790568
100.08295327975
100.076010997173
100.075496186026
100.073301689809
100.072783130942
100.072709309608
100.072337911563
100.071802442161
100.070665760369
100.071756651145
100.072907134171
100.073069195276
100.072233021027
100.071198697531
100.070046865054
100.069675115427
100.070265356712
100.070191179163
100.069515478141
100.070069050205
100.071199472586
100.072176511288
100.073158875536
100.073131898518
100.071941875413
100.070843596296
100.072020645843
100.072447848668
100.072778656429
100.072782412554
100.0732840339
100.07572197121
100.076430415643
100.073824596298
100.07698049051
100.080098009551
100.081750609683
100.079593144112
100.079342393063
100.080505935418
100.078500293518
100.076020845782
100.071825718872
100.077127405576
100.065226185414
100.05320080748
100.058917121605
100.060033955766
100.072221224826
100.068120327834
100.069334930485
100.071489288446
100.069492669285
100.068077536714
100.067563584838
100.070136837093
100.071636139734
100.067571348616
100.066630571492
100.068966511174
100.066172695969
100.065053932733
100.066083898353
100.066088325386
100.065105156687
100.066188005159
100.068918340585
100.066590085733
100.067389752673
100.071874183495
100.070663916789
100.067899639068
100.068266083346
100.0695957877
100.071553182911
100.069288135768
100.067995514289
100.072544123259
100.072578488701
100.069580726507
100.073120872389
100.079356468893
100.084754983117
100.078121506762
100.078028278466
100.08230929163
100.09760555114
100.066220116229
100.066761709374
100.050640829663
100.024187004357
100.025096881418
100.020631872988
100.021031713844
100.027410161696
100.058163033449
100.070509219458
100.066616001508
100.066417265765
100.073315106653
100.059592425318
100.060341567375
100.060270170802
100.060461979053
100.070172137583
100.06532414095
100.0653131108
100.070118432473
100.060488024191
100.060312366726
100.060340741593
100.059427373171
100.058265320482
100.060318901326
100.05853815483
100.019043390312
100.022216743717
100.023216888462
100.023062576986
100.022259715333
100.022393261353
100.023840000769
100.024483556301
100.027809340442
100.024922753211
100.025929254684
100.029518298979
100.029522440869
100.025939084554
100.024881467845
100.027566886648
100.02707671027
100.020361112329
100.022081588232
100.028867608267
100.029307554817
100.028183741012
100.028053716825
100.029142309676
100.029008276447
100.028095512962
100.028460458421
100.028743666075
100.023528977766
100.02429902553
100.025498756013
100.025456222
100.024183035272
100.023311177579
100.024239737466
100.023514342048
100.027859956606
100.029125415638
100.029858385886
100.030116251989
100.029286071936
100.02930046391
100.030195090261
100.030016913203
100.029328106032
100.029554125821
100.0297385236
100.029741186871
100.029025076323
100.028617934923
100.02855584705
100.028845189511
100.028399885713
100.028195653081
100.02932873477
100.027527476319
100.027388125
100.027604163921
100.027777770786
100.027268327689
100.027217751245
100.027755856712
100.027699135257
100.027469891493
100.027673881666
100.027663284994
100.027669219357
100.027540477945
100.02935821268
100.02930715753
100.029607901395
100.029504059166
100.027520490617
100.02518257974
100.025229458423
100.025134147679
100.025168702302
100.025183084071
100.025170326591
100.025072923416
100.025058720277
100.025182672025
100.025107229641
100.025277221224
100.025234769312
100.025293905918
100.025256719031
100.025245267389
100.027513206769
100.027630279164
100.02528673377
100.023356791731
100.023272830022
100.023310288208
100.023245649778
100.02329855771
100.023158858018
100.0236152154
100.023593078732
100.023119713151
100.023260154359
100.023155440821
100.023274993028
100.023240539819
100.023337674938
100.023319860054
100.023321315275
100.021579002157
100.021600742178
100.021516597958
100.021548703684
100.021491820858
100.021606506733
100.021453395805
100.021339913561
100.02138478591
100.021477037806
100.021530959909
100.021385253189
100.021457483812
100.021423482837
100.021552540477
100.021564560795
100.019700422205
100.019721186004
100.01969675107
100.019570646966
100.019598769798
100.019529334924
100.019667736718
100.019709380209
100.019275365868
100.019266475666
100.019598574575
100.019572854172
100.019451844988
100.019490902593
100.019450361158
100.019647131282
100.017343301672
100.017468944287
100.017484420794
100.017369694012
100.017140401764
100.017175362739
100.017102102892
100.017237591397
100.017453059066
100.01674531465
100.016754659068
100.017357367327
100.017151986949
100.01711373702
100.017101811744
100.017074196805
100.013623702922
100.014161954061
100.014435894681
100.014444804883
100.014124822615
100.013567621834
100.013836876943
100.013803076084
100.013571101947
100.014210103904
100.012868559875
100.012952090399
100.014353372219
100.013690072703
100.013922796702
100.013855067853
100.009083756538
100.007658681229
100.008903940006
100.009873784592
100.009795614504
100.008743053674
100.007338020985
100.008734992948
100.008881299631
100.007358089839
100.009558582025
100.006950081371
100.006847431073
100.009677649595
100.007808405856
100.009353116636
99.9973419002915
99.9959122300649
99.9899854577252
99.9926265556403
99.9967551781685
99.9965772208455
99.9922541638153
99.9894951690904
99.9953042587293
99.9964743472155
99.990213700115
99.9956580089316
99.9938677490139
99.9939714593646
99.9961577463627
99.9914650887278
100.003283702763
100.008148032859
100.004615011007
99.9981565256042
100.00470698912
100.006746420401
100.006464654316
100.004068101101
99.9971736666003
100.003247130918
100.006485837742
100.001361052611
99.9996749173204
100.036826286235
100.062415136411
100.063132150577
100.038783458401
100.00303269408
100.002310941688
100.097475510867
100.18404149835
100.127725829569
100.128985680429
100.113407811766
100.095423335016
100.080310204591
100.070915635014
100.063613532473
100.065428823214
100.078435298675
100.068569879764
100.06820590555
100.07758871235
100.063918916854
100.06166731999
100.068598087584
100.077378341854
100.092586430499
100.110829481762
100.208848375577
100.233782860867
100.235675302051
100.212109503423
100.211659935757
100.196737130948
100.217262255518
100.25202567401
100.163495456688
100.160210799555
100.213229159915
100.174819381752
100.201528182217
100.227297057342
100.167862719979
100.167595395262
100.226861962095
100.200772069254
100.173318681475
100.211298836666
100.157069695543
100.159416587159
100.213043287017
100.192540068282
100.207775471542
100.307667934375
100.360579615595
100.333268315445
100.336209476114
100.367777142361
100.328764834341
100.313761232577
100.422038289925
100.453474329357
100.430786697633
100.441374131636
100.43166622745
100.392006758448
100.330313217078
100.35324581843
100.303025947919
100.406836108626
100.434825208674
100.405704449016
100.415021250341
100.434253490006
100.386969450185
100.323560278287
100.321677511698
100.24980197987
100.294511796278
100.37392864684
100.410780990546
100.437804213979
100.454129395631
100.463214818926
100.467558997516
100.469352799657
100.46999096009
100.470038334805
100.469792063831
100.469537721761
100.469491573246
100.469677791403
100.46998336592
100.470405263267
100.471079005511
100.471974831512
100.473188455165
100.475102228465
100.47816806601
100.483169639558
100.491860483517
100.509473457012
100.534167022803
100.577538289685
100.568934549396
100.502822721085
100.443895274284
100.384441649838
100.350689573458
100.374044453939
100.372304048369
100.370061799625
100.370631419646
100.371765551628
100.372793183664
100.373993999371
100.37558743343
100.377497582155
100.379500892659
100.381316884529
100.382673973175
100.383361727922
100.382766600363
100.38193588892
100.380815621302
100.379411366226
100.377724223699
100.375746933027
100.373588060203
100.371462029452
100.369559785681
100.367994603891
100.366739871223
100.365757808067
100.365008780963
100.364521454365
100.364382886751
100.364641079995
100.365305879483
100.366362238199
100.367764973346
100.369356218118
100.370775374335
100.37135381953
100.371362284041
100.371280903008
100.371329541859
100.371353723533
100.371394479964
100.371407497082
100.37139810789
100.371463218127
100.371457667261
100.371658032809
100.371801350863
100.371974482621
100.372046590184
100.372035722843
100.371893781101
100.37177185541
100.371606651076
100.37161240563
100.371535674491
100.371761024584
100.371898412149
100.371844429325
100.371684812398
100.371540339637
100.371367949217
100.37134864761
100.371300400887
100.371326882442
100.371333127462
100.371290932852
100.371288770321
100.371292138757
100.371280206198
100.371165204726
100.371241234711
100.371223794259
100.371258954278
100.371254670032
100.371234367078
100.371249251493
100.371243453968
100.3713991444
100.371556652157
100.371710228252
100.371551993949
100.371403847623
100.371264024709
100.371137820203
100.371182522565
100.371169559647
100.371177649287
100.371185912031
100.371168132483
100.371195886689
100.371192029289
100.371186600542
100.371066046834
100.371149919088
100.37110807353
100.371127214701
100.371108509473
100.371099928234
100.371119712872
100.371085555675
100.371182282673
100.371286228043
100.371416586573
100.371428506649
100.371346870277
100.371206254751
100.371054046425
100.371039460354
100.371003719326
100.371196436809
100.371316925606
100.371174757624
100.371108622104
100.371012778766
100.371028569006
100.371024484069
100.371048305801
100.371071800759
100.371057047826
100.37109979948
100.371079426032
100.371076246808
100.370962740046
100.371052831761
100.37100268458
100.37100636589
100.370993486059
100.37098018523
100.370970221142
100.370925253925
100.371029036023
100.37108856465
100.370965551716
100.370921887731
100.370855994627
100.370926097106
100.370921980721
100.370929478169
100.370949985578
100.370955245538
100.370991800209
100.370944658369
100.37094258087
100.370852820824
100.370942914368
100.370900800468
100.370902892418
100.37088144004
100.370858658082
100.370854605775
100.370775904484
100.370881744711
100.370876144478
100.370925328146
100.370844587116
100.370837600999
100.370750426079
100.370740318718
100.370788455709
100.370792102205
100.370767236083
100.370850344044
100.370832918698
100.370845628013
100.370841988446
100.370876042951
100.370820374442
100.370785786913
100.370730642767
100.370807818215
100.370754571215
100.370776058327
100.370750987194
100.3707589265
100.370726994864
100.37077008933
100.370697114351
100.370850550807
100.370725099601
100.370692432648
100.370561575245
100.370620358453
100.370530134018
100.370726159385
100.370684571709
100.370751443802
100.370682154132
100.370748195043
100.370761573499
100.370746507244
100.370694644608
100.370735507121
100.370719696124
100.370732451452
100.370641043293
100.370623054647
100.370476637079
100.370088946443
100.370494900396
100.370628533721
100.370618203053
100.370676816334
100.370674117917
100.370680589226
100.370711537998
100.370715269781
100.370680781091
100.370740438048
100.370672363281
100.3706278753
100.37060271292
100.370533447502
100.370674987821
100.370525631797
100.370648418837
100.370722668783
100.370604830227
100.370662682231
100.370665596853
100.370641372921
100.370620339018
100.370627655089
100.370559104907
100.370554812935
100.370412107333
100.36993101528
100.37045489381
100.370548471615
100.370542227699
100.370588044764
100.370582422876
100.370601304293
100.370625119978
100.370618614627
100.370591634749
100.370624492663
100.370510277497
100.370583923288
100.370637753948
100.370681311788
100.370656798522
100.37058127226
100.370593372881
100.370270234126
100.370204379131
100.370387516034
100.370385737094
100.370531736741
100.370359960476
100.370589972694
100.370637110154
100.370536891642
100.370545890617
100.370537415864
100.370537537087
100.370523139561
100.370505971384
100.370514041568
100.370509625506
100.370420164183
100.369983192402
100.370483038963
100.370503243512
100.370510089511
100.370539364277
100.370514016683
100.370562644309
100.370583762721
100.370595767708
100.370595851388
100.370621894589
100.370678020528
100.370731228882
100.370772992828
100.370818268316
100.370761596434
100.37077652125
100.370818343155
100.370861308022
100.370910077625
100.370960386737
100.371009967125
100.37106456593
100.371114419407
100.371171222865
100.371220672419
100.371280639907
100.371421951499
100.371463469372
100.371491508913
100.371472088762
100.37154777532
100.371559356375
100.371798163355
100.371938708217
100.37213857038
100.372255900222
100.372205128581
100.372192787272
100.371947538186
100.371729417867
100.37157708032
100.37143032967
100.371310081656
100.37136107431
100.371419490975
100.371635049971
100.371792658712
100.372025176574
100.37186913429
100.371698718944
100.371449764069
100.371321454859
100.371274458329
100.371125871013
100.371011363181
100.370879238577
100.370777877174
100.370825275404
100.370806369483
100.370985865091
100.371172590464
100.371276907053
100.37138591024
100.371430575087
100.37137526459
100.371260489115
100.371095758567
100.370986427921
100.370923844809
100.370879341374
100.370783774141
100.370729284775
100.370576965426
100.370338946566
100.370063952985
100.37000847553
100.369844998454
100.370007171435
100.370063162969
100.370297054694
100.370586248684
100.37040463118
100.37025235687
100.370109676881
100.369960852889
100.370170475765
100.370119445481
100.370428608424
100.370438475587
100.370384985224
100.370481970176
100.370520984298
100.370693306366
100.370639722101
100.370675472835
100.370676087619
100.370678275718
100.370900297959
100.37093955978
100.370982134258
100.371006616994
100.371042231582
100.371062871642
100.371099415366
100.37111267467
100.371145957917
100.371154197088
100.371187802768
100.371198882451
100.37133107019
100.371491049975
100.371543192281
100.371574969639
100.371532351155
100.371649669006
100.371701564053
100.371972737964
100.372077287622
100.372358980284
100.372337247887
100.372392610581
100.372459253814
100.372366378592
100.372140877453
100.372031416517
100.371898190118
100.371570076957
100.371082660971
100.370923027848
100.370804802085
100.370599885189
100.370470365916
100.370335891867
100.370229925036
100.370095223676
100.370019417524
100.36990425061
100.370092661988
100.370226438225
100.370399574742
100.370513994231
100.37065376336
100.370721812279
100.370866218895
100.370986398101
100.371119682008
100.371233580093
100.371044599831
100.37126757172
100.371517069089
100.371387702967
100.3714927589
100.371341374527
100.371096294632
100.370956036301
100.370992777922
100.371054010683
100.371238800919
100.371394221072
100.37157070348
100.371614161671
100.371647211038
100.371621038226
100.371772445894
100.371828675757
100.372108710435
100.372214216517
100.372474083195
100.372478344613
100.372607783762
100.372478047448
100.372288047524
100.372002273078
100.371656113255
100.371213565774
100.370510010703
100.37019863514
100.370058182161
100.369910296532
100.369732868948
100.369534950924
100.369364875138
100.369239155535
100.369176850126
100.369419638026
100.369583213863
100.369781661125
100.370164319181
100.370161597958
100.370355842513
100.370120351262
100.370430684141
100.370644811857
100.37039569326
100.370811683936
100.371066514402
100.371482845799
100.371545959067
100.371469167061
100.371457225368
100.371495806057
100.371653245319
100.371673793024
100.371721279166
100.371708121167
100.371873870149
100.371941936713
100.372219539885
100.372359143142
100.372633327519
100.372634214471
100.372760823831
100.372609190489
100.372444272877
100.372154172049
100.371764624515
100.371364508831
100.370706692239
100.370411178067
100.370011850645
100.369822986969
100.369760794443
100.369531774331
100.369383612486
100.369221973392
100.369057408162
100.36883616665
100.368625396791
100.368432856982
100.368274180923
100.36809931525
100.367863190055
100.367684929377
100.367992640022
100.368272879874
100.368447948476
100.36857957369
100.36873944887
100.368913848013
100.369150368559
100.369358367855
100.369494315017
100.369605536036
100.369826896064
100.369704461675
100.369547090745
100.369036541028
100.369123603012
100.369350622672
100.369353876112
100.370070866474
100.370503482239
100.370944836769
100.371405699825
100.371425671745
100.37138651849
100.371376158181
100.371415683561
100.371387557666
100.371425631236
100.371495071557
100.371483514452
100.371545363622
100.371541529533
100.371759289596
100.37174714564
100.371810879401
100.371794964192
100.371981910928
100.372075345568
100.372350067903
100.372524137648
100.372826416695
100.372754712845
100.372916583488
100.372762187299
100.372577344055
100.372268195456
100.371890129216
100.371482628611
100.370843036936
100.370529885446
100.370033621176
100.369947357557
100.369804702659
100.36982886522
100.369822597282
100.370003215438
100.369810447609
100.369634220634
100.369481777315
100.369309514211
100.36911090844
100.368863999726
100.368630428191
100.368385468755
100.368141870087
100.367815128876
100.367455295214
100.367127005908
100.366865252518
100.366476398162
100.366717199309
100.36707066404
100.367343377311
100.367674506926
100.367923855672
100.368121057423
100.368378061863
100.368616359634
100.368870221254
100.369046927947
100.36921322872
100.369357406651
100.369578606369
100.369510194202
100.369307147702
100.368987399684
100.368846620178
100.368752929402
100.369027021526
100.368981531811
100.368772923933
100.368420002402
100.36800427969
100.367516929232
100.36693536382
100.366276676411
100.365278550283
100.36386390002
100.363044525608
100.363329921914
100.363979737499
100.364714336332
100.3654012082
100.366137568917
100.366700831268
100.367235976735
100.367695270384
100.368074381969
100.368450130419
100.369180710051
100.367498447896
100.366762009329
100.366371269563
100.366031929187
100.365721396976
100.365464806273
100.365039004064
100.364484273362
100.363425842328
100.362411428515
100.359347042595
100.356726173658
100.361126621182
100.360695612553
100.360606022957
100.358695985662
100.359620981129
100.357867503421
100.359479596197
100.360468221153
100.360895387313
100.361788724438
100.362870207597
100.363911065668
100.364950968173
100.365642897827
100.366433490233
100.367034777592
100.367621856719
100.368074978231
100.368448812065
100.368748551248
100.36911219346
100.369076645978
100.369736039539
100.367902841839
100.371310208932
100.371587736884
100.371674631703
100.371935636272
100.372061642515
100.371939350404
100.371501572224
100.3707341907
100.369757556797
100.368476252868
100.366552833892
100.364840836532
100.363619976828
100.365687628493
100.366627982002
100.363117456582
100.361073943303
100.35962434456
100.353214376587
100.355739588422
100.353894106723
100.356431044356
100.35772319587
100.365418702916
100.367359912755
100.369628165053
100.369497638715
100.369683027084
100.369810988375
100.370057404538
100.370351558328
100.370633524056
100.370914158061
100.371160798976
100.370299408925
100.368713714324
100.367107058812
100.365786099064
100.364866139929
100.364371376499
100.364295319537
100.364597855012
100.365204256939
100.366019756221
100.367036010252
100.368320723104
100.369916074348
100.371834382374
100.373965934696
100.376127069301
100.378110890714
100.379804284052
100.381205401265
100.382305547722
100.383105387624
100.383663869299
100.384027689428
100.38375647296
100.382751708534
100.382332657374
100.381721830753
100.380898653572
100.379811017337
100.378480286299
100.376889789081
100.374996210602
100.372904201368
100.370854810413
100.369036887409
100.367561757636
100.36638848688
100.365483622589
100.364842734502
100.364515949905
100.364557033791
100.364997409592
100.365825377192
100.367014792241
100.368479970767
100.370041729418
100.371179277055
100.37147721355
100.371549628856
100.371603224602
100.371629240175
100.371564103641
100.371602143247
100.371829098238
100.37180106894
100.371902878401
100.371915667088
100.372171580738
100.372287967029
100.372511746607
100.372748114009
100.372810268224
100.372946070058
100.373042327557
100.373084813783
100.372925550094
100.37273641796
100.372351116694
100.37202665665
100.371818806757
100.371558326345
100.371177866549
100.370712611856
100.370220936907
100.370064550671
100.369917973432
100.369978899648
100.370184149078
100.370147157259
100.370500205599
100.370382919203
100.370204953611
100.370368244925
100.370149199478
100.369995702387
100.36984523649
100.369631589809
100.369387227881
100.369146841301
100.368875126595
100.368569337037
100.368304261974
100.367775290713
100.368002949855
100.368361738073
100.368672449359
100.368927948443
100.369165679846
100.369419401612
100.369635020148
100.369789968847
100.369958719021
100.37018699777
100.369927248211
100.369968865259
100.370004162902
100.369656849093
100.369102333034
100.36865379952
100.368493758949
100.368636271038
100.368989572837
100.369193356963
100.371372236054
100.371087756379
100.371936042047
100.371747734913
100.371531610186
100.371829084373
100.371673686107
100.371792081718
100.372068056808
100.371950996569
100.372078642842
100.372166883388
100.372495182648
100.372845456933
100.373089170413
100.373265628511
100.373269425298
100.373157746358
100.373088835399
100.37291678583
100.372538990852
100.372197600355
100.371692657331
100.371296593512
100.370854499813
100.370380493403
100.370190956165
100.369924750936
100.370100616068
100.369979450086
100.370143638105
100.370349113289
100.370639899707
100.370584039226
100.370851451471
100.370677043092
100.370703342216
100.370556603171
100.370423594157
100.370279451434
100.37010808141
100.369917834431
100.369729203022
100.369516631268
100.369270729636
100.368999112764
100.368716544413
100.368387843945
100.367985231634
100.367538743779
100.36719994304
100.366716028158
100.367038546498
100.367470743873
100.367914034201
100.368118640398
100.368449513899
100.368764673276
100.369057702394
100.369308850145
100.369540830147
100.369753019592
100.369937196493
100.370109332419
100.370302015156
100.370520487811
100.370664387731
100.370526275284
100.370410944418
100.370406900497
100.370017510037
100.36885555796
100.367837863948
100.367650031279
100.367799786175
100.367966948332
100.368667956594
100.369347048352
100.36936188923
100.368311015696
100.370468134474
100.368631252106
100.371207660753
100.371424930848
100.372690809959
100.371495150993
100.371196432538
100.3708038794
100.370108218599
100.369334331679
100.368625128563
100.367953966541
100.367462840531
100.367075768459
100.366537270374
100.366772065534
100.364631489341
100.363808223839
100.362548521023
100.361823585386
100.36026939703
100.360341813351
100.359609930327
100.359072408373
100.351925209358
100.354144002334
100.353407897656
100.354317668424
100.355973779699
100.356269892458
100.355594454106
100.355824460478
100.356250065531
100.360571051936
100.358315469207
100.358822184008
100.356888555899
100.356415626584
100.355764928547
100.357564850448
100.358643846836
100.359415312407
100.359115422279
100.357265847797
100.357479075821
100.35998596199
100.361139924692
100.362710212784
100.36262576209
100.364064204985
100.365154708307
100.366253850776
100.367053321384
100.367763641604
100.368282348502
100.368689631196
100.368994901958
100.369300551662
100.369378948037
100.36929795383
100.369511900167
100.36954856393
100.368903614515
100.367630238337
100.370345467433
100.371708633004
100.372278350061
100.371961653793
100.371934655928
100.371982260515
100.371931675882
100.372292227386
100.372209148699
100.372345909005
100.37247756611
100.372850128145
100.372994827331
100.373382066022
100.373551678482
100.373484168724
100.373560768895
100.373446048357
100.373396045679
100.373394940031
100.373251911923
100.373029961754
100.372696222473
100.372349684015
100.372286115826
100.371669894072
100.371363884635
100.371078755317
100.370900634206
100.370625281099
100.370355870334
100.370081927825
100.37021676326
100.370254325848
100.370539028768
100.370760285122
100.370700128858
100.370913664012
100.370851649898
100.370972641676
100.370862014677
100.370761050459
100.370615471416
100.370599815664
100.370398748122
100.370244439555
100.370060116347
100.369870372179
100.369642330113
100.369420895844
100.369145198615
100.368854984752
100.368562471825
100.368215636673
100.367811536416
100.367468841229
100.367705238478
100.368117141669
100.3684694966
100.368775330871
100.369069801232
100.369344555956
100.369574205097
100.369787396236
100.369989528882
100.370180963602
100.370346045605
100.370525354888
100.370511850285
100.370598632132
100.370360989294
100.370116276517
100.370358754141
100.369291920546
100.36952163823
100.368308026781
100.368703493592
100.369205535163
100.369284708381
100.369598713216
100.369534734244
100.369968592354
100.368407439246
100.371965045088
100.373510338145
100.372803808721
100.371757324671
100.372106017052
100.370961405158
100.370301296511
100.369432945805
100.368325551222
100.367625219753
100.366992081569
100.366459520887
100.366015167466
100.365442776137
100.3647049134
100.364906120843
100.365959359316
100.366572945709
100.367101798105
100.367683173121
100.368396877029
100.369144083642
100.369910465491
100.370482697463
100.371146126067
100.371912286417
100.371528038757
100.37103363366
100.371326584162
100.371654020005
100.371799920943
100.371683635525
100.37171284388
100.371882686177
100.371733417071
100.372016931259
100.372024167718
100.372030085827
100.372301465178
100.372337461639
100.372628155451
100.372993108326
100.373215908884
100.373373513791
100.373369883644
100.373357963572
100.373292143555
100.373091030715
100.372726394212
100.372248065715
100.371878743728
100.372314934256
100.37249479111
100.372751809583
100.373127565433
100.373309102585
100.373471142935
100.373546141545
100.373377187468
100.373209069481
100.372951300587
100.372891411886
100.372698588791
100.372313069839
100.372275385768
100.372184455567
100.372245279537
100.371863851163
100.371965394365
100.371900281892
100.371792851144
100.371764995881
100.371933852275
100.371782717499
100.372107368739
100.372126102595
100.372189154312
100.372184024451
100.371595078311
100.371721720624
100.371884521881
100.372045456805
100.372489036079
100.372580904052
100.372882723787
100.373369469466
100.373570259404
100.373582479145
100.373465764831
100.373227007203
100.373149535081
100.372871171138
100.372824381757
100.372734511884
100.372602802808
100.372321165881
100.37201822343
100.371537752888
100.371417965931
100.370902567271
100.370666000094
100.37047523357
100.370191905375
100.370349166788
100.370292102198
100.370684561256
100.37057607105
100.370713203734
100.370855057176
100.370990834954
100.370954142552
100.371060587668
100.371021751956
100.371060126432
100.370964142872
100.37085162495
100.370715628738
100.370545445937
100.370357528084
100.37018381291
100.36997760559
100.369775423081
100.36951940375
100.369285193735
100.368991110963
100.368677940814
100.368364640671
100.367987490495
100.367548080455
100.367214043683
100.366722136987
100.366112539679
100.365479009406
100.364884860564
100.364057204444
100.363296970432
100.364143889332
100.364925124307
100.365549813141
100.366194680501
100.366740925566
100.367156503954
100.367347054861
100.366984826926
100.366702795025
100.366134545908
100.365497972907
100.364830327915
100.363799601147
100.364591227674
100.365058513006
100.36573708994
100.366294279671
100.366633440646
100.365946974168
100.36540985828
100.3644904562
100.365027760636
100.365542262382
100.366101012151
100.366717818409
100.36723479428
100.367653051422
100.36778818514
100.367245927521
100.366795871157
100.366387323431
100.365949080626
100.365155356017
100.365645911688
100.366248846804
100.366544159247
100.366893354544
100.367290615818
100.3677976477
100.368188451299
100.368473696401
100.368718128124
100.368952383642
100.369201765485
100.369412813714
100.36958783081
100.369753910403
100.369691116523
100.369282869118
100.368802661499
100.368257632838
100.36838853167
100.368520740216
100.368916108198
100.369495929769
100.369902675162
100.369808801667
100.369923016923
100.370104775435
100.369378450902
100.368849068016
100.369326352522
100.368838678099
100.368250827975
100.367468011291
100.366591253922
100.365444593479
100.36422926436
100.36415551084
100.365640511232
100.366898312969
100.367827170793
100.368621537398
100.369204063537
100.369679498313
100.370016100785
100.369701648489
100.370045856262
100.370170762227
100.37039807785
100.370225915903
100.3698448436
100.369820692116
100.369576544355
100.369717348818
100.370521562198
100.369026092061
100.371369422734
100.371932363243
100.373255489206
100.372428027296
100.372694227741
100.371839901717