/*--------------------------------*- C++ -*----------------------------------*\
| =========                 |                                                 |
| \\      /  F ield         | OpenFOAM: The Open Source CFD Toolbox           |
|  \\    /   O peration     | Version:  v1612+                                |
|   \\  /    A nd           | Web:      www.OpenFOAM.com                      |
|    \\/     M anipulation  |                                                 |
\*---------------------------------------------------------------------------*/
FoamFile
{
    version     2.0;
    format      ascii;
    class       volScalarField;
    location    "0";
    object      p;
}
// * * * * * * * * * * * * * * * * * * * * * * * * * * * * * * * * * * * * * //

dimensions      [0 2 -2 0 0 0 0];

internalField   nonuniform List<scalar> 
80683
(
99.6091567353643
99.6019421267858
99.588150178727
99.5593061919114
99.5624573037745
99.569459262818
99.580493526715
99.5628346252643
99.5451167021178
99.5450036080468
99.5637072508167
99.5825525164593
99.5725109815809
99.5668386707472
99.5586688300101
99.5539729409011
99.5568009029893
99.5642863818473
99.5829706445898
99.5888615895416
99.5799937844949
99.5627679957703
99.5598587357994
99.5682858317438
99.5628969580964
99.560434863074
99.5628813259782
99.5494871082924
99.5449454077205
99.5522028991541
99.5520178703446
99.5446284052995
99.5492548672302
99.5629742603314
99.560575711571
99.5626663282135
99.5681564814531
99.5598545950846
99.5627299192521
99.5796847121044
99.5884581292352
99.5819598090066
99.5627354782885
99.5543726945585
99.5495856469071
99.5532368930512
99.5555464029532
99.5495578216917
99.5490774920794
99.5540207633732
99.587744246478
99.5929759966817
99.5806434029952
99.5470057069086
99.5513294415763
99.5687397726665
99.562600485099
99.5605432782158
99.562767940917
99.5402796066439
99.5277501764198
99.5515505136067
99.5518103631303
99.5284561881573
99.5409594921968
99.562892270706
99.560888048125
99.562847920298
99.5690010718243
99.5513980654527
99.5470589239135
99.5811439067814
99.5936184342003
99.5891795169809
99.55553847021
99.5514016762932
99.5525476561441
99.5599250065823
99.5636902664191
99.5678370953271
99.5862702939737
99.550301553432
99.5100884056126
99.5092951637048
99.5488388251789
99.5846345641962
99.564770865373
99.5897093921108
99.5929152081493
99.5925777149246
99.5808687740814
99.5863653661739
99.5916210297302
99.5846496770667
99.581550095014
99.5833248886638
99.596251558863
99.5939046660574
99.584176823255
99.5617717028603
99.5683704630612
99.5768317681793
99.5796745574486
99.5790225996276
99.5704538229099
99.5573603462263
99.5440643751772
99.5591694989226
99.5593076331192
99.5445103230986
99.5577559125691
99.5707014015261
99.5795283970912
99.5800098672304
99.5772482341527
99.5685591175216
99.5618854323148
99.5849349376675
99.5949332040741
99.5983573217905
99.5850531399865
99.5833446937195
99.5863690650429
99.5891767458866
99.5902626916659
99.5914527574098
99.5939153377842
99.5712054381863
99.5410587362306
99.5404990950662
99.569895331055
99.5753930154368
99.5789118211104
99.5798668188869
99.5807720287572
99.5816830731581
99.5817601044347
99.580448859374
99.582434395762
99.5836139110795
99.5844534128877
99.5947562336045
99.5888471883183
99.5871848480072
99.5774862284961
99.591423888376
99.5866017563175
99.5859856139826
99.5927156186999
99.5652799922024
99.5726489773186
99.5726046480293
99.5654497492602
99.5925942379062
99.5860760880806
99.5868922531452
99.5917775682014
99.5846853392517
99.5925256332337
99.5869150669363
99.5802994554751
99.5847381172207
99.5834057551995
99.5832803912719
99.584593095659
99.5853207873109
99.5844447315401
99.5873048539896
99.5861768182544
99.5849014364073
99.586154535235
99.5897286124942
99.5898241261515
99.5864208837081
99.5851248317909
99.5865863243849
99.5839091148345
99.5825356999436
99.5856907640046
99.5917488565553
99.5914067166519
99.5906529225594
99.5905526499603
99.5910415564388
99.5912934128445
99.5919041175447
99.5926469012247
99.5942229118104
99.5886289670724
99.5897731818276
99.5904548637978
99.5905940482493
99.5900330494358
99.5890508540725
99.587883647974
99.5849382363942
99.592432084513
99.5994721342334
99.598461074653
99.5976917196942
99.5973126688523
99.5972464435699
99.5974978546088
99.5980933486743
99.5990177064211
99.599505292067
99.5999986451696
99.6001580807895
99.5944622030069
99.5939933082951
99.5941286381766
99.5948619031951
99.5948205002206
99.5932315812935
99.5999846146239
99.6064094748837
99.6062191160385
99.6056855390113
99.6052069166215
99.6049690648585
99.6049281639424
99.6050699439413
99.6054787539078
99.6060079840568
99.6062207839938
99.606323308002
99.6065228369429
99.6066704203405
99.6001763841278
99.6002825114353
99.6004350580797
99.6004088709964
99.6064462761635
99.6130489522726
99.6131160713093
99.6131557430552
99.6129705861463
99.6128177879429
99.6127624415523
99.6127626876117
99.6128219123491
99.6130159716227
99.6131991406794
99.6132038960545
99.6131244295769
99.6131566473586
99.6132076544251
99.6131626420621
99.606686400802
99.6065862682894
99.6130982985939
99.6198509445152
99.6198850133809
99.6199939395546
99.6201132898599
99.6200992538386
99.6200761812784
99.6201086462099
99.6201678006386
99.6202417268841
99.6203406026512
99.6203861653771
99.6202712239832
99.6200923849418
99.6199467681279
99.6198643893129
99.6198382397055
99.6265780738185
99.6266003743589
99.6266765100457
99.6268411766495
99.6270507144596
99.627171663169
99.6271175343997
99.627043759311
99.6271386153439
99.6273545676317
99.6275023914899
99.6274350788564
99.6272278023547
99.6269964434856
99.6267935475931
99.6266324272896
99.6334712388817
99.6333602452851
99.6333326818984
99.6334113151821
99.6336250195513
99.633999920826
99.6343268837897
99.6343265237871
99.6341275641077
99.6342060122399
99.6345270371315
99.6346638697708
99.6343812272529
99.634020713394
99.6337640538335
99.6336029742248
99.6406138963504
99.6405330831291
99.6404211346313
99.6403687948735
99.6403033416014
99.6402832136181
99.6408242376818
99.6416732397352
99.6420069516306
99.641747812866
99.6418328604607
99.6422129197764
99.641923266188
99.6411670838104
99.6406601224088
99.6406189999398
99.6484670708837
99.6487574325297
99.648517789859
99.6484541857333
99.6485991644852
99.6482426946164
99.6474691989798
99.647596512636
99.6492616620097
99.6507967418601
99.6506381552283
99.6507168937268
99.6509735844905
99.6495188875365
99.6479412982405
99.6477341947935
99.6557003432815
99.6572222481794
99.6577000139491
99.6572197901524
99.6572178287305
99.6576880398706
99.6571746070238
99.6557305235414
99.6547969018019
99.6559845996469
99.6589261992825
99.6603517440304
99.66030532342
99.6590633565358
99.6561956423792
99.6549257420105
99.6718256033075
99.6727948635724
99.6738370677224
99.6743583557457
99.6739188923279
99.6739751478256
99.6744977267173
99.6740302754421
99.6730145815076
99.6721600238914
99.6717205734422
99.6718957854301
99.6695514037444
99.6694124988781
99.6717393897488
99.6714913137721
99.7173449860793
99.7170007633054
99.716655060365
99.7172174238877
99.7186192319448
99.718149476483
99.7182111237057
99.7188093802823
99.7175360312963
99.7170072167603
99.7174914976306
99.7178668688859
99.7171299401199
99.7401621615896
99.7641306863548
99.7641166822067
99.7400428385577
99.699608367121
99.6995751891951
99.7446405408978
99.8335209243211
99.8357074043597
99.8355261948688
99.8213300340714
99.8043335967359
99.8015576210376
99.794493736975
99.7933241121378
99.8011594758633
99.806340450269
99.7966080209934
99.7966511625988
99.8065075768955
99.8014467007262
99.7937012458639
99.7948374597224
99.8018346263779
99.8044548722121
99.821336899637
99.9039554268978
99.9327211863291
99.9326465225256
99.9040923499382
99.8987403111536
99.9010169533615
99.9387303157374
99.9884738887974
99.890963936561
99.8923418036657
99.9426922912113
99.9066273122869
99.9226622892563
99.9564987380493
99.8959531697338
99.8960530925208
99.9566686629061
99.9228860317071
99.9068449984726
99.9428370612762
99.8925703994105
99.8910991558291
99.9387114742951
99.9009475626703
99.8985964097858
99.9940460132022
100.078459130527
100.041361689116
100.041303756292
100.078450217555
100.066617167685
99.9941179004342
100.068966230331
100.138429271459
100.134347761066
100.161738053627
100.163393371719
100.112673091294
100.070423909861
100.089785466958
100.006667154731
100.077105604307
100.141028798275
100.138332242325
100.152270639314
100.174762104839
100.122081469298
100.059151498264
100.05933991231
99.9895030855242
99.9636606558746
100.061860336982
100.132886947326
100.186661860366
100.222802879024
100.247068117123
100.263938938149
100.275879743592
100.28454706845
100.290964251455
100.295726920671
100.299211861995
100.301710826465
100.303497476943
100.304814863005
100.305847474067
100.306715788501
100.307489160385
100.308201337463
100.308859811126
100.309454301444
100.309967832235
100.310380743247
100.310672814694
100.310819907621
100.310795903049
100.310643598226
100.310522778259
100.310373474326
100.310210480208
100.309990989308
100.309839872785
100.309859314019
100.310067872031
100.310370118642
100.310710190905
100.311046111377
100.311352989175
100.31161757749
100.311832419254
100.311992512813
100.312096145832
100.312148812542
100.31216599386
100.312198088718
100.312242588168
100.31229977388
100.31237099867
100.312456967104
100.312557572658
100.312671762819
100.312797534739
100.312931922744
100.313071177204
100.313210957607
100.313346335944
100.31347164699
100.313580523835
100.313665230152
100.313716309617
100.313722070163
100.313669133089
100.313547552241
100.31336396753
100.31316364552
100.313034181853
100.313033730549
100.313066121422
100.313089027502
100.313091534058
100.313088648843
100.31308815189
100.31308765461
100.31308685244
100.313086544242
100.313088379123
100.313092205181
100.313097980856
100.313105137938
100.313106927835
100.313080175794
100.313042774115
100.312997892065
100.312960325157
100.312999454384
100.313038444884
100.313077976381
100.313073197327
100.31306543233
100.313060003129
100.313057032593
100.313054237673
100.313052907262
100.313055369373
100.313056739472
100.313058424612
100.313058008873
100.313038466184
100.312971576777
100.312997908396
100.313019592124
100.313022103241
100.313018946981
100.31301653202
100.313015856662
100.313017832247
100.31301994281
100.313022898354
100.313028116402
100.313033474732
100.312985710513
100.312980874945
100.312976314566
100.312974495644
100.312974623413
100.312974697493
100.312974170754
100.312974940928
100.312977775035
100.312978555349
100.312961285298
100.312890520174
100.312910384019
100.312929622709
100.312931362545
100.312928912079
100.312928308208
100.31292698049
100.312926864966
100.312927455007
100.312928411657
100.312930966875
100.312930999621
100.312922909669
100.312875472201
100.312817206246
100.312757915254
100.312714677489
100.312768361461
100.312824167991
100.312878545108
100.312877279278
100.312877213921
100.312878017609
100.312876086141
100.312874709131
100.312877717407
100.312879248932
100.312879699684
100.312879608366
100.312864629951
100.312789003537
100.312804483304
100.312822467174
100.312825551748
100.312824363862
100.312822362683
100.312821301957
100.312823002588
100.312822267896
100.31282105131
100.312822424312
100.312765809399
100.312764668425
100.312764928175
100.312766237288
100.312764504815
100.312763934241
100.312766628484
100.312768229369
100.312766933526
100.312751208819
100.312669298719
100.312688541981
100.312706033841
100.312710088594
100.312707746987
100.31270371349
100.312704072735
100.312713157647
100.31271528063
100.312709950558
100.312703983582
100.312680183865
100.312623606602
100.312583789678
100.31264970839
100.312657491459
100.312637037294
100.312672799385
100.312624512241
100.312637719377
100.312640913951
100.312643763482
100.31264332964
100.31264369745
100.312634984549
100.312550378567
100.312566684116
100.312563985452
100.312581325735
100.312581919814
100.312579520296
100.312569453831
100.312548389317
100.312524528276
100.312518216723
100.312525745106
100.312520522632
100.312494509866
100.312407979043
100.312356557532
100.312441692674
100.31245120073
100.312454456286
100.312455983313
100.312462064435
100.31245206157
100.312510765574
100.312454699122
100.312465191091
100.31252673002
100.312475551689
100.312495544113
100.312497287319
100.312494269778
100.312457449526
100.312386563364
100.312401482519
100.312436040655
100.312431446813
100.312421179372
100.312409682621
100.31240084658
100.312394769129
100.312397437285
100.312395931351
100.312391803967
100.31238265354
100.312365500272
100.312320783065
100.312243577302
100.312203853683
100.312283162875
100.312299737725
100.312320528354
100.312333992782
100.312334169458
100.312324426786
100.312324353933
100.312337105884
100.31234620007
100.312354849319
100.31236645267
100.312352591039
100.312305509811
100.312264597689
100.312282134348
100.312276464777
100.312268512193
100.31226116963
100.312249931443
100.312238294082
100.312212767374
100.312224944027
100.312247448558
100.312227222639
100.312174657391
100.312144337061
100.312166913611
100.312088022779
100.312071587142
100.312043492432
100.312000993238
100.311935619166
100.311895084045
100.311870958937
100.311847189359
100.311946275011
100.311986360891
100.312015816978
100.312040917895
100.312125719853
100.312157288995
100.312176817106
100.312185196779
100.312192495395
100.312185663307
100.312203636613
100.312194788311
100.312128650839
100.31211825896
100.312119183667
100.312108982826
100.312087003332
100.312065147892
100.312046924762
100.312036452705
100.312103024166
100.31216035409
100.312240148918
100.312312960164
100.312392908809
100.312466605957
100.312554204476
100.312574674914
100.312636719569
100.312705277854
100.312765072661
100.31282533793
100.312878301486
100.312931160019
100.312976598076
100.313021670598
100.313057046188
100.31309124317
100.31311804131
100.31311953234
100.313116877124
100.313115662672
100.313116327266
100.31311706918
100.313116611942
100.313117634665
100.313120957627
100.313124054237
100.313125919185
100.313131087886
100.313138350938
100.313146009381
100.313152318561
100.313126990133
100.313095761706
100.313053788571
100.313019779971
100.31305565794
100.313094908332
100.313125542202
100.313114445597
100.313088342724
100.313045479617
100.312989790909
100.312986451011
100.312936849099
100.312872229273
100.312805321434
100.31273636588
100.312661380955
100.312609321092
100.312678708675
100.312744668861
100.312815143423
100.312877870563
100.31293525547
100.312920422437
100.312871480008
100.312815005259
100.312749400934
100.312677702534
100.31266796947
100.312601098472
100.312593751852
100.312564216651
100.312545352466
100.312556974574
100.312534940747
100.312434055206
100.312331626347
100.312271597295
100.312367944405
100.312467480576
100.312475282508
100.31237973941
100.312281447881
100.312221436226
100.312123515252
100.312066486524
100.312182488811
100.312206490328
100.312286850684
100.312268088625
100.312303173169
100.312321834031
100.312351046753
100.312379111476
100.312455918944
100.312536565917
100.312611291077
100.312627366127
100.312698087942
100.312759176601
100.312822813545
100.312875947667
100.312930506039
100.312976643987
100.31302186483
100.313056578365
100.313091566558
100.313117830019
100.313145437502
100.313145378277
100.313145851828
100.313143282164
100.313141352306
100.313140325033
100.31314225046
100.313144964652
100.313146941383
100.313150072962
100.313154591781
100.313165562238
100.313148313467
100.313172312321
100.313172339224
100.313184605692
100.313169781363
100.313193089989
100.313194825342
100.313200226594
100.313173830007
100.313143441201
100.313101858946
100.313056316141
100.313003004602
100.3129395447
100.312869185331
100.312798885275
100.3127245025
100.312666104843
100.312737697885
100.312807538136
100.312878114544
100.312941639315
100.313000423791
100.313052320358
100.313099304067
100.313134540776
100.313161581039
100.313168918022
100.313161856448
100.313151888982
100.313150748616
100.313143597573
100.313133485889
100.313128185962
100.313122426804
100.31314790241
100.313170009143
100.313165444788
100.313165393867
100.313166541625
100.313164553966
100.313163925118
100.313162964106
100.31316341444
100.31316597475
100.31316945535
100.313173927407
100.313177923796
100.313183417439
100.313190651122
100.313197637013
100.313202941253
100.313211221398
100.313221050055
100.313226540432
100.313234210099
100.313243581163
100.313219740299
100.313197898313
100.313179540137
100.313156185062
100.313126133258
100.313084080595
100.313041618246
100.313087452451
100.313119250144
100.313151148422
100.313149621305
100.313183408097
100.313208976387
100.313216601636
100.313206206118
100.313196248837
100.313196689241
100.313174391837
100.313150140826
100.313145807605
100.313145149529
100.313143766303
100.313165207225
100.313183084729
100.313186769018
100.313183633955
100.313182115837
100.313181854326
100.31318156962
100.313181653764
100.313184664419
100.313190165035
100.313194140852
100.313198472052
100.313204996796
100.313213471845
100.313218839179
100.313225317139
100.313235416556
100.313244049112
100.313253981152
100.313266016208
100.313275536945
100.313277959742
100.313282699395
100.313264722443
100.313239862264
100.313212428069
100.313179606597
100.313133017057
100.313073398511
100.313018432769
100.31296854748
100.31290779751
100.312828214355
100.312755471436
100.312834820186
100.31290166638
100.31295859951
100.313010914298
100.313073648261
100.313129878747
100.313168284693
100.313204764098
100.313235233293
100.313257824265
100.3132515619
100.313228535637
100.313205023436
100.313205517918
100.313199253057
100.313189238399
100.313177068481
100.313139376157
100.313121115528
100.313100203546
100.313099949087
100.313099433938
100.31309803817
100.313118860944
100.313142602136
100.313119011932
100.31308113055
100.313117259797
100.313159632164
100.313179125217
100.313199461969
100.313202421488
100.313200933053
100.313199148471
100.313197700448
100.313196945926
100.313196114766
100.313198124784
100.313202550578
100.313205418101
100.313210734366
100.313218997787
100.313227492868
100.313233281897
100.31323976555
100.313245418938
100.313253586625
100.31326430098
100.313279320113
100.313292447889
100.313310845162
100.313301712105
100.313320360218
100.31332159437
100.31332974328
100.313308780751
100.313283431091
100.313257195903
100.31322988782
100.31319272295
100.313143811788
100.313090341922
100.313041479838
100.312983077436
100.312904385945
100.312808563977
100.312726553846
100.312656245174
100.312578406662
100.312663312033
100.312723713531
100.312813052169
100.312908294487
100.312977958587
100.313031745843
100.313082041691
100.313138907289
100.313186750201
100.313221680137
100.313248365767
100.31327487532
100.313297202596
100.313305837536
100.313297267623
100.313295894089
100.313289622338
100.313276955097
100.31321271166
100.313157710788
100.313129421279
100.313066212457
100.312936210419
100.31271846598
100.312383302737
100.311929212143
100.311288843699
100.310578613122
100.310730793558
100.31127651035
100.311725067681
100.31217795483
100.31252486789
100.312798287823
100.312994758583
100.313130727638
100.313216421039
100.313264356557
100.31328540432
100.313148669495
100.312976460062
100.312993833817
100.312968128267
100.312917368996
100.312837678874
100.312711844473
100.312517604104
100.312256808494
100.311884803815
100.310841356911
100.312035813743
100.308116869703
100.309583151293
100.31005838934
100.306520895056
100.305042405233
100.30565933325
100.306832983378
100.307862704442
100.309809341883
100.310729940794
100.311364487977
100.311351329638
100.311955870965
100.312427721661
100.312748067764
100.312984482499
100.313148010071
100.313259000907
100.313328183793
100.313365385683
100.313379251819
100.313361629553
100.3132536678
100.313060708832
100.312919300953
100.31288555861
100.312953960115
100.312945019827
100.312899706904
100.312836899056
100.312778070549
100.312728475521
100.312639549475
100.312493075467
100.31220984465
100.310233323445
100.311645078718
100.309850377227
100.315163824966
100.312594457662
100.307646324708
100.310506686667
100.308084552648
100.302531899216
100.302409500602
100.309362535691
100.307181252032
100.310251247683
100.310435490401
100.311891588629
100.312161267023
100.312384534819
100.312315749116
100.312531137768
100.312550712092
100.312699041794
100.312823305461
100.312917585826
100.312985833411
100.313146457398
100.3133857253
100.313604915619
100.313753406359
100.313823515265
100.313826152255
100.313776907456
100.313689627105
100.313575113293
100.313442349332
100.313298658192
100.313150203259
100.313002198883
100.312859253217
100.312725298015
100.31260339671
100.312495658136
100.312403192048
100.312326142515
100.312263837141
100.312214959221
100.312179380916
100.312155951959
100.312145074229
100.312143644818
100.312161710856
100.312190356668
100.312230635115
100.312283085731
100.31234900791
100.312429093385
100.312523232591
100.312630379565
100.312748517383
100.312874839251
100.313005845859
100.31313746572
100.313265065812
100.31338349228
100.313487003244
100.313568639743
100.313620353532
100.313632080588
100.31359227712
100.313492208654
100.313337611466
100.313169882987
100.31306836779
100.313093039365
100.313115847916
100.313151024371
100.313189663032
100.313211713306
100.313214275461
100.313213690595
100.313213072839
100.313212451257
100.313210024752
100.313209441581
100.313211648098
100.313215746983
100.313224564621
100.313219390442
100.313230647257
100.313233770199
100.313239260983
100.313244774338
100.313251735779
100.313262871929
100.313259678064
100.313271496164
100.313276922597
100.313286668307
100.31329905095
100.313313815267
100.313326100388
100.31333047544
100.313336945876
100.313350199154
100.313360642476
100.313358051266
100.313339949117
100.313313550581
100.31329812299
100.313276246799
100.313245140964
100.31320199228
100.313154929831
100.313106033134
100.313048681129
100.312983581908
100.312928278482
100.312856187741
100.312937949001
100.312988933726
100.313052196363
100.313104248637
100.313152110104
100.313200923904
100.313242525156
100.313271333261
100.313292138778
100.313310249508
100.313315081137
100.313340134511
100.31334335983
100.313337250838
100.313338853521
100.313331957304
100.313314917507
100.313322844506
100.313293023543
100.313216368001
100.313126669969
100.313107987929
100.313149991887
100.31316088309
100.313161141953
100.313202585946
100.31322311483
100.313231764381
100.313230419206
100.31322782985
100.313229383107
100.313231001411
100.313233568977
100.313239686867
100.313243397705
100.313244842929
100.313248833478
100.31325408277
100.313255362546
100.313253778279
100.313260175009
100.313268739028
100.313277891635
100.313285299841
100.313293213583
100.313305408344
100.313321656694
100.313336217834
100.313353810012
100.313346893295
100.313363235324
100.313364494233
100.313371985969
100.313383069826
100.313399569254
100.313387615026
100.313371595646
100.313352527018
100.313332259902
100.313313162067
100.313283482984
100.313245644424
100.313205771952
100.313161067501
100.313104231354
100.313040483733
100.31297385772
100.312899209939
100.312812271115
100.312690125756
100.312638313667
100.312569450322
100.312677136375
100.312724449128
100.312811863566
100.312907566366
100.312980845311
100.313046194637
100.313106969492
100.313158715881
100.313203865028
100.313245741598
100.313281050687
100.313307238129
100.313326209637
100.313353692267
100.313367956834
100.313368491261
100.313363987533
100.313359682777
100.313353382516
100.313350769561
100.313353780534
100.313329688673
100.31334345713
100.313326295804
100.313321932482
100.313320735789
100.313108997268
100.313071726372
100.312585780091
100.312938441777
100.312633210907
100.312656306027
100.313691421564
100.313020785512
100.313113646805
100.313202367513
100.313277518325
100.313324283945
100.313358286623
100.313370210188
100.313323107361
100.313096432239
100.312821321032
100.313490353767
100.314505284984
100.31512807164
100.314625779833
100.314319356526
100.316072340756
100.30578732385
100.30870495107
100.307019976872
100.298243265002
100.294239915725
100.305102055587
100.302354118168
100.2988491706
100.299932349151
100.300825734678
100.303321537486
100.304068479865
100.306369561349
100.307399323326
100.307981665817
100.306386971683
100.304363562944
100.305323454491
100.307163821428
100.308121189782
100.309775533042
100.309513830635
100.307940160984
100.308948251667
100.310742327567
100.311039764417
100.311877982004
100.311942071134
100.312409549011
100.312741074808
100.312984616423
100.313152023185
100.313264983752
100.31333681476
100.313378902294
100.31339824261
100.31340448953
100.313377825039
100.313368933854
100.313292559787
100.313035543665
100.313043774195
100.312654631666
100.313085684981
100.313170838262
100.313190597673
100.313184909757
100.313235122518
100.313263520649
100.313266948324
100.313268149278
100.313266594038
100.313265263328
100.313264198004
100.313264815781
100.31326496756
100.313261956039
100.313262561122
100.313266932395
100.313266482627
100.313264492989
100.313262122789
100.313262071193
100.313259013682
100.313263568151
100.313270714599
100.31327822441
100.313275079818
100.313283953115
100.313297805826
100.3132982373
100.313308658499
100.313316715162
100.313328689248
100.313342436143
100.313357301452
100.313369211477
100.313372455669
100.313378180359
100.313390690923
100.313401929065
100.313408852969
100.313412705194
100.313401497262
100.313389432453
100.313370554587
100.313350787973
100.313338934097
100.313319731579
100.313287648924
100.313250054861
100.313207200999
100.313158572612
100.313096866527
100.313029010079
100.312958388228
100.312874231035
100.312795199691
100.312715005527
100.312825634918
100.312891271746
100.312969229863
100.313035849658
100.313100991736
100.313160572322
100.313207050407
100.313247362279
100.313285619593
100.313317246085
100.313335109319
100.313347210414
100.313353340235
100.31336028529
100.313362995571
100.313360892811
100.313374886244
100.313381413828
100.313395769088
100.31337813633
100.31337300348
100.313371997156
100.313368895799
100.31332097647
100.313221926596
100.313120827654
100.3130851387
100.312939791353
100.313219094409
100.313408780784
100.313600871595
100.313647074399
100.313743736037
100.313739118079
100.31376766982
100.313786748924
100.313893776992
100.314017093389
100.314175828467
100.314441315558
100.314698326641
100.314906288881
100.314590628778
100.313910157394
100.314040719513
100.313958531626
100.313862019987
100.313755963411
100.313666391369
100.313583389851
100.313508921062
100.313456244672
100.313456122315
100.313595995013
100.313357118583
100.31328122506
100.313263225894
100.313176748002
100.31313454543
100.313186898303
100.313219553381
100.313239210148
100.313244086848
100.313246564095
100.313246456928
100.313241389677
100.313239075766
100.313241134739
100.313244996879
100.313248769091
100.313252216164
100.313254984803
100.313256130434
100.313251890955
100.3132483221
100.313244922943
100.313242727162
100.313240813193
100.313248353001
100.313253824274
100.313250497537
100.313251018882
100.313253976679
100.313257359541
100.313261020784
100.313258197044
100.313255443027
100.313256512759
100.313261842549
100.313257313928
100.313257557986
100.313259391956
100.313261656978
100.313263213091
100.313258922022
100.313253095241
100.313229195057
100.313180538823
100.313210127355
100.313238474992
100.313250330643
100.313255849054
100.31325410982
100.313252150191
100.313253257603
100.313250762427
100.313258193446
100.313264562388
100.313270450023
100.313269359202
100.313268818367
100.313269556419
100.313272763003
100.313273643974
100.31327439147
100.313276617166
100.313280557976
100.313280115819
100.313281241295
100.313279991246
100.313279078781
100.313279256673
100.313286308852
100.313292799473
100.313301046625
100.313297835475
100.313310197831
100.313321862864
100.313332805167
100.313345110882
100.313362345821
100.313377479475
100.313394783049
100.313389550432
100.313403379555
100.31340291102
100.313407868124
100.313415241088
100.313419745378
100.313421991783
100.313426029509
100.313417157378
100.313407120216
100.31339135816
100.313364328022
100.313344176001
100.313322355881
100.31329009665
100.313252400673
100.313206689689
100.313155727668
100.313092504502
100.313021387874
100.312943619576
100.312845692677
100.31272757334
100.312603012724
100.312486584185
100.312361846622
100.312270827204
100.312239570119
100.312249448151
100.312204944339
100.312413524568
100.312350498016
100.31235435533
100.31242688455
100.312536726944
100.312603111748
100.312627203593
100.3125834625
100.312469072722
100.312387442102
100.312364149134
100.312418766928
100.312287199094
100.312393937952
100.312366419688
100.31242773907
100.312458486133
100.312477681603
100.312438208673
100.312382857964
100.312290110761
100.312377816159
100.312439017539
100.312539427339
100.312647910338
100.312727320791
100.312772386438
100.312773051968
100.312721760487
100.312640794488
100.312554709084
100.312463400739
100.312350836997
100.312475321413
100.312548240181
100.312638647298
100.312720863542
100.312802142006
100.312907210337
100.312985527974
100.313047722278
100.313097806799
100.313147880308
100.313197272158
100.31323630031
100.313264680334
100.313289038846
100.313298361593
100.31329550752
100.313295893294
100.313274654203
100.313304273028
100.313315793971
100.313316435335
100.313317265399
100.313320826557
100.313332200763
100.31333683827
100.313366712182
100.313375779274
100.313379546799
100.313390620541
100.313344521521
100.313271421365
100.313156438886
100.312985681832
100.312740658229
100.312396257395
100.312294522303
100.312684750903
100.312959149696
100.313142480183
100.313265024445
100.313340238648
100.313390090355
100.313418929071
100.313416384927
100.313426156979
100.313417060324
100.313444092787
100.313448790186
100.313413584512
100.313394880179
100.313287318298
100.313230990721
100.313119060538
100.313336140364
100.312923406861
100.312764420144
100.313453276023
100.313170933022
100.313394742711
100.313535261991
100.313563960866