/*--------------------------------*- C++ -*----------------------------------*\
| =========                 |                                                 |
| \\      /  F ield         | OpenFOAM: The Open Source CFD Toolbox           |
|  \\    /   O peration     | Version:  v1612+                                |
|   \\  /    A nd           | Web:      www.OpenFOAM.com                      |
|    \\/     M anipulation  |                                                 |
\*---------------------------------------------------------------------------*/
FoamFile
{
    version     2.0;
    format      ascii;
    class       volScalarField;
    location    "1.5";
    object      p;
}
// * * * * * * * * * * * * * * * * * * * * * * * * * * * * * * * * * * * * * //

dimensions      [0 2 -2 0 0 0 0];

internalField   nonuniform List<scalar> 
74874
(
100.128996513823
100.131380697392
100.131854068171
100.13044385684
100.135959053943
100.136545444324
100.133387582677
100.134995914007
100.137512937663
100.137586589453
100.135474121663
100.133938022647
100.137221704969
100.136671688323
100.137683064032
100.13786647028
100.137247841922
100.13410913156
100.131200125811
100.130630545579
100.132104961024
100.133422108891
100.131903567643
100.131553915847
100.136995153734
100.137131072124
100.132530383387
100.132796006624
100.133958753021
100.132137436984
100.132274944068
100.133773119322
100.132777909728
100.132477742807
100.137063957766
100.13656614023
100.131464075609
100.131880257911
100.133322277471
100.131742993015
100.130311936076
100.13083739014
100.133743912404
100.136890280998
100.137337817037
100.137095689107
100.13095263603
100.130212275928
100.129818223797
100.129252101386
100.128239342458
100.128244652913
100.127529712571
100.127877373991
100.128144349025
100.12870113617
100.1299018871
100.129390365736
100.127782754442
100.127495434768
100.127228375947
100.126775275081
100.126819630564
100.127357515782
100.127518509392
100.12785419312
100.129407180616
100.129940905755
100.128816698107
100.128299832994
100.128167800962
100.127830203264
100.128491919028
100.128501875625
100.129490172979
100.130106924568
100.130584102185
100.131362502929
100.130906673169
100.13247699821
100.132085474634
100.133228049047
100.133487419927
100.133272286841
100.132705145147
100.132223912683
100.131727117176
100.128570987801
100.126895963788
100.128926893015
100.127888278747
100.124196305133
100.125145252382
100.127757210033
100.12745480269
100.125711351027
100.123952999978
100.125535327355
100.127098034945
100.126448565963
100.125772533566
100.125356504048
100.123536402675
100.122471629252
100.123668330119
100.123612764068
100.122351212158
100.12348946917
100.125469319443
100.125952172824
100.126298637188
100.127306864925
100.126079824673
100.124433151111
100.126075974686
100.127714973674
100.127991765235
100.125321291897
100.124413780933
100.128297402438
100.129351239029
100.127411843577
100.129391001109
100.132952859931
100.13317638668
100.130765125746
100.130529027974
100.124109887534
100.132260347354
100.131853692277
100.126423194109
100.123949052318
100.128586944955
100.128959546611
100.123288707263
100.123522575808
100.126421943282
100.124828610747
100.123656051284
100.121660473601
100.124547250545
100.12712307308
100.123362468648
100.122805594679
100.125044455337
100.121419477127
100.119071664489
100.121256133746
100.121221303656
100.11900981078
100.121391874339
100.125155674497
100.123177936079
100.124026160316
100.1280880941
100.125530761268
100.12223879256
100.124072068939
100.125132767993
100.12670744062
100.123732267495
100.123451382774
100.129534792745
100.129057540866
100.124649749043
100.127680014981
100.134471287297
100.135349553597
100.125045319701
100.152180855017
100.150138857086
100.122719467803
100.122582612893
100.127910081492
100.117451129578
100.118984657081
100.130037155384
100.126410485818
100.123558078873
100.123488229298
100.128394220646
100.117967820227
100.119112927829
100.119370873579
100.119123105229
100.125946741819
100.122211028385
100.122175340802
100.12580918086
100.11925167629
100.119520013235
100.119288730867
100.117880562274
100.11633135721
100.119272550132
100.117029304412
100.108390647989
100.110993546514
100.082767565148
100.078879409549
100.079242887172
100.08501254456
100.116238996067
100.110556463693
100.093512834092
100.08652305089
100.080202335644
100.080956666164
100.085933064844
100.082915630449
100.083881375605
100.087178370665
100.087165727818
100.083832834624
100.082899081158
100.085568969462
100.084749516666
100.078544729617
100.077274193181
100.081802935349
100.079845495542
100.079676612371
100.078676370764
100.078701806778
100.084926941299
100.0841322909
100.084447771056
100.084833354314
100.080099242853
100.080672242408
100.08202017032
100.081995653309
100.080654000152
100.079889086368
100.080880179898
100.080105763444
100.078624580604
100.078657345902
100.085452816629
100.084515163356
100.084177293198
100.084945135031
100.086223512496
100.086166866791
100.085548018288
100.08572677945
100.085980596924
100.086013357134
100.085106351359
100.084824203754
100.08481531711
100.084996984217
100.084637415905
100.084407782468
100.08406546419
100.084989508813
100.086099724863
100.086409607953
100.08566528775
100.085560408494
100.083834934204
100.08412329721
100.084104165762
100.083898586515
100.084052405768
100.084051799116
100.084081020467
100.083944536736
100.085662055899
100.085635599151
100.085878689441
100.085800322003
100.085635183817
100.085474439352
100.083769668504
100.083955145752
100.084096053061
100.083811234468
100.081489082069
100.081540807554
100.08165362293
100.081681755732
100.081596563515
100.081713657101
100.081663971956
100.081713665
100.08166525991
100.081650894918
100.083924387838
100.08399726343
100.083927214128
100.083930769449
100.081605982967
100.081455229281
100.081536219887
100.08155109286
100.079551010147
100.079539447652
100.079591625314
100.079650845363
100.079710083501
100.079635153628
100.079722079404
100.079690616383
100.079739248062
100.079704197207
100.07969232401
100.079713402413
100.081675120035
100.081579909843
100.079624845881
100.079642100233
100.079530718461
100.079602320684
100.0778670412
100.077825843373
100.077774243154
100.077806024788
100.077849305113
100.077927673122
100.077871182237
100.077952004328
100.077930796436
100.077979001211
100.077960158384
100.077955557805
100.077965276958
100.077880228205
100.077894930594
100.077816042819
100.076013160983
100.076015539134
100.075973283892
100.075872557395
100.07589043032
100.075936117301
100.076039900149
100.076010430902
100.076102422204
100.076082352823
100.076152099989
100.076165151393
100.076171084817
100.076167058509
100.076068153583
100.076079906982
100.0740000611
100.073923462917
100.073891887774
100.073840259265
100.073594057805
100.073606004189
100.073753990896
100.073865046683
100.073844581259
100.073964053421
100.073965559428
100.074070703988
100.074124113547
100.074178505041
100.074163081095
100.074045745051
100.071477146753
100.071394890762
100.071280705038
100.071255340456
100.071194760596
100.070599153767
100.070564986552
100.070992948424
100.071096025984
100.071110551492
100.071264060396
100.071333926173
100.07152665253
100.071590341359
100.071669445099
100.071609632329
100.067789623589
100.067571431875
100.06758801256
100.067383218978
100.067189305954
100.067390170045
100.066155275818
100.066011941989
100.066941986568
100.066823650711
100.066985736368
100.067254009045
100.067298181973
100.06766332165
100.067844368188
100.067902071333
100.061843192155
100.061691869008
100.061177466173
100.061448256922
100.061319368106
100.060437069214
100.061321978928
100.058799422973
100.058674705075
100.060635674407
100.059740411422
100.060458216352
100.060730663891
100.060730390284
100.061273351044
100.061663386508
100.039360855513
100.039573960011
100.036308049518
100.035983457392
100.039626
100.040210658516
100.035451454025
100.035922214553
100.035839073051
100.035745935569
100.035295358861
100.034196355983
100.039038766174
100.038706131977
100.035457180494
100.035897716344
100.041724617246
100.044526708324
100.044606271581
100.042464142593
100.042242994193
100.043882500505
100.046105288797
100.039894010326
100.026722867937
100.069101217999
100.104744338045
100.104419797541
100.067957647012
100.035158437698
100.035375544864
100.173996205669
100.298513586571
100.223970869856
100.222002119454
100.175191240686
100.159827460321
100.145213296399
100.038882705035
100.045422495616
100.043615881026
100.041638299123
100.151010496453
100.151668272226
100.190459575211
100.129404901756
100.13014261929
100.191829378101
100.152938286681
100.151748884937
100.188122189005
100.125074632274
100.122848134329
100.178969257329
100.145555935877
100.162758600698
100.177781902893
100.297796265793
100.367857198317
100.346192279507
100.342910235712
100.361680244376
100.33999220766
100.29355170433
100.458985129402
100.485227431205
100.492298928255
100.52619553892
100.596354382319
100.600566819877
100.521340513207
100.454365466947
100.387947999276
100.350037660281
100.374032093461
100.372551183773
100.369479266693
100.369571812054
100.370485299111
100.371465231572
100.372731836063
100.374545555735
100.376900403689
100.379643106045
100.382510549359
100.385048895703
100.386660142529
100.385437984401
100.383744766825
100.381736142614
100.379539738344
100.37732387576
100.375100434588
100.372871077026
100.370764586377
100.368919766752
100.367416274236
100.366254721219
100.365346371062
100.364613391514
100.364025284756
100.363570491978
100.363277333539
100.363199451198
100.363354192079
100.363778586643
100.364670907732
100.366217626363
100.368065263983
100.369889795596
100.371630718007
100.372764727324
100.372667299183
100.372606156529
100.371960784925
100.371384528929
100.369563534117
100.367708756288
100.365995037539
100.364637810455
100.363862010959
100.363456351616
100.363272590407
100.363303096743
100.363559934515
100.363999805611
100.364575204424
100.365276955021
100.366137405466
100.367218704156
100.368616224577
100.370339107914
100.372329751048
100.374451086696
100.376545478995
100.378574476411
100.380526420201
100.38227949371
100.383774821575
100.384864486062
100.385400838734
100.387263461766
100.388527111916
100.387883619546
100.386580077373
100.384758049573
100.382576968898
100.380201318884
100.37782024171
100.375478515564
100.373182708835
100.37101351132
100.369098769971
100.36752329982
100.366300836602
100.365356684612
100.364616884716
100.364036122747
100.363605034471
100.363325454798
100.36322521731
100.363350368364
100.363784921582
100.364765781752
100.366472333694
100.36842590353
100.370269345815
100.371939658917
100.372980836307
100.372879416984
100.373232524004
100.373473491528
100.373468678927
100.373672510386
100.373566575049
100.373756979478
100.37364269192
100.373834023921
100.373760820056
100.373805614051
100.37365077229
100.373589948633
100.373470477201
100.373331875344
100.37334843433
100.373273081289
100.373503952198
100.373676346194
100.373641198428
100.37371830261
100.37354990557
100.373657412871
100.373472445357
100.373583190242
100.373379465033
100.373377583897
100.373140424955
100.373009114519
100.373263313206
100.373278369407
100.373479474182
100.373378477959
100.373551367952
100.37347910139
100.373618633186
100.373528943982
100.373517959402
100.373355632696
100.373322571089
100.37326093099
100.373297886757
100.373211988837
100.373345208302
100.373444619286
100.373477832223
100.373358094298
100.373450815988
100.373287405571
100.373380647263
100.373185629374
100.373160287055
100.372885013335
100.372699136755
100.372982053492
100.373037953596
100.373236043881
100.373188424001
100.373300794286
100.373344720717
100.373241929649
100.373433234665
100.37350722355
100.373569803354
100.373665506202
100.373773663196
100.373894958909
100.373764151267
100.373975242653
100.37390992568
100.373970527646
100.373821379784
100.373778203878
100.373587224211
100.373309248439
100.373021048807
100.37283158336
100.372653532701
100.37247604931
100.372328487881
100.372386711564
100.372515475369
100.372741527653
100.372903054466
100.373090718734
100.37340329347
100.373236536831
100.37308597515
100.37301126389
100.373122406439
100.373082587267
100.372745309082
100.372481473447
100.372405137408
100.372295911865
100.372413451894
100.372458860376
100.372682126562
100.373009972004
100.373120954435
100.37319598863
100.373294153141
100.373359578189
100.373457828097
100.373537188218
100.373606226552
100.373706840039
100.373833991906
100.373974878479
100.37402647092
100.374090518543
100.373922837663
100.373902342322
100.373663736179
100.373490015687
100.373236918992
100.372827376227
100.372413148454
100.37207186367
100.371915821913
100.37166239857
100.371629407654
100.37191590518
100.37227173194
100.372657917866
100.372412484424
100.37209027156
100.371798268205
100.371589330566
100.37138746681
100.371175636301
100.371030459544
100.371168181449
100.371369030727
100.371642026562
100.371818613817
100.371904048194
100.371658508766
100.371824363822
100.372239969992
100.372207660626
100.37261889246
100.372828526057
100.373172037466
100.37335797987
100.37338877672
100.373482385837
100.37357638606
100.373672212915
100.373571286244
100.373779729411
100.373672265056
100.373880930457
100.373996016798
100.373881042528
100.37409059635
100.374230489464
100.374207099892
100.374285376049
100.374187517046
100.373973395295
100.374003084409
100.373962112689
100.374111165674
100.374067802928
100.374194761488
100.374118425497
100.374153637078
100.373997771429
100.374110730919
100.374345460102
100.374320403589
100.374407635965
100.374363498321
100.37421501403
100.374164174778
100.37375466371
100.373591229264
100.373439871357
100.373084688629
100.372644142789
100.372287953305
100.371704158354
100.371499309635
100.371237256419
100.371011825872
100.37079650502
100.370579863894
100.370273365868
100.369954620405
100.369852914837
100.370159305225
100.37056691914
100.370820965122
100.371038360544
100.371264454755
100.371460883692
100.371214164645
100.371351137527
100.371194123962
100.37147999898
100.371956660261
100.373121265263
100.37343965059
100.373448139032
100.373688635781
100.373680730155
100.373884886079
100.373777226314
100.373896408173
100.374113939219
100.37422283403
100.374343675232
100.374242979893
100.374481357232
100.374466626149
100.374556057758
100.374504010505
100.374345554731
100.37429360888
100.373931399378
100.373756352656
100.373417169522
100.373023001687
100.372677907755
100.37248005956
100.371916611109
100.371736059663
100.371553598271
100.371414275271
100.371414744564
100.371121975238
100.370847790875
100.370652280291
100.370296221968
100.370505260285
100.370842251401
100.371129375067
100.371293823962
100.371014235006
100.370735644946
100.370353265657
100.370385578946
100.36994516179
100.369527599873
100.369194606428
100.368931280311
100.368713628458
100.368971972572
100.369329359958
100.369680352614
100.370042121064
100.369803755914
100.369964416109
100.370082418719
100.370307893934
100.37039637324
100.371009701637
100.371615189001
100.372867760212
100.373208242642
100.373336651132
100.373348842409
100.373583326246
100.373599528357
100.37370288152
100.373832489212
100.373816437834
100.373799212137
100.374009404496
100.374118327034
100.374008814274
100.374122102594
100.374229660771
100.374442119716
100.37435218717
100.374587035193
100.37457181143
100.374672055281
100.374616551537
100.374507773089
100.374409683736
100.374114208481
100.373911129628
100.373529859151
100.37312144309
100.372805532159
100.372276254936
100.372141561938
100.371970362625
100.371802554624
100.371676234846
100.371694938175
100.3715593329
100.371780956247
100.37149171513
100.371192443931
100.370891895882
100.370561435598
100.370196030196
100.369781079468
100.369375349112
100.368865460437
100.369163296459
100.369671819907
100.370134060707
100.370386207826
100.370659946658
100.370964535828
100.371266854656
100.371276475424
100.371152132569
100.370808032512
100.370078107963
100.37006971993
100.369895961033
100.369279403529
100.36873915373
100.367343870877
100.367845709639
100.368641041417
100.36938647708
100.370090465384
100.370423090647
100.370311293244
100.369854518416
100.369111100135
100.368275528137
100.367177826724
100.36613306855
100.36559295774
100.363611399564
100.362409467444
100.363906551527
100.365012738386
100.365871138422
100.366964848311
100.366901648216
100.365474012334
100.364567138369
100.363202967439
100.361678442984
100.360872113369
100.360646514426
100.361819115609
100.363580923103
100.364845494246
100.365564304478
100.366658966614
100.367305139562
100.368162002208
100.369219213405
100.369960698727
100.37068927051
100.371308028757
100.37064308526
100.370930825799
100.370734094007
100.371593792346
100.371034220923
100.370429799699
100.369810879601
100.36922725456
100.368622581569
100.367853827671
100.366564441467
100.36587058315
100.364701153081
100.364518393847
100.364032431899
100.362661440703
100.362096442428
100.361044039316
100.355796053787
100.357156934757
100.357510923943
100.359648045287
100.360682680045
100.363968486397
100.364953939162
100.3678098631
100.368613924664
100.370702775871
100.369873940797
100.368769298638
100.368710760999
100.368699054996
100.368763861467
100.369200316836
100.368464419456
100.36687075457
100.366510977071
100.366425039894
100.366527740314
100.368588993821
100.370634752581
100.370596382085
100.371417969298
100.37195076672
100.371965094371
100.372395436552
100.372129754776
100.372320298033
100.372391845588
100.372466164346
100.372408915173
100.372309233783
100.372138247799
100.371611794218
100.371379855315
100.371545779726
100.371643319965
100.371523392189
100.371731354462
100.371741793256
100.371887998658
100.372211236853
100.3722535759
100.372449152593
100.372102608568
100.372358994088
100.372425606682
100.372045828279
100.372259968667
100.371915795158
100.37190170561
100.37140614326
100.37127430828
100.371791382768
100.371822985474
100.372134282077
100.371992827022
100.372285963976
100.372065054502
100.372299845592
100.372107691548
100.372065167096
100.371946012449
100.372041233982
100.372177369107
100.372047304326
100.371910086867
100.37175676883
100.37141962031
100.370949382107
100.370516435131
100.370866896238
100.370949763222
100.371294353377
100.371245784562
100.371665549604
100.371815020253
100.371999793518
100.371736796567
100.371973256503
100.372061490076
100.371868483726
100.371989344913
100.371598430424
100.371679706864
100.371407744876
100.37074050654
100.370526152476
100.369705010858
100.369852273441
100.369958488063
100.370905467776
100.371414888873
100.371451319624
100.371842837914
100.371598065947
100.37197810242
100.371894186279
100.371687609956
100.371875153007
100.371689867694
100.371474313613
100.371305086307
100.371548746726
100.371654932275
100.371794996059
100.371709173485
100.371584179151
100.371361318179
100.371000593546
100.370335777198
100.3695919286
100.370245816989
100.370405239878
100.37087196132
100.370868552472
100.371305158008
100.371521284261
100.371657193018
100.37138924769
100.371677617488
100.371705393469
100.371573808248
100.371616888666
100.371757881699
100.37134313921
100.371410157767
100.371009394537
100.370226035091
100.370289669309
100.371076919896
100.371129952481
100.371680158519
100.371432590417
100.371560060014
100.371627522379
100.371626604039
100.371675142587
100.37170877756
100.371872278751
100.370176516001
100.371189264501
100.371251484494
100.371515192532
100.37203068668
100.372184900224
100.372177986403
100.372458223389
100.372414488966
100.372538357628
100.372646652296
100.372499577723
100.372626195907
100.372452524575
100.372452720083
100.372519910889
100.372557652739
100.372620878247
100.372757199207
100.372786867964
100.372774683243
100.372468049418
100.372391955871
100.372459069373
100.372261882745
100.371894186512
100.371575916594
100.370850470232
100.370220376555
100.369599853885
100.369848561737
100.370102256811
100.370057888229
100.369966961317
100.370366619947
100.370490124661
100.370653168584
100.370641557433
100.370259422401
100.370635281926
100.370902040841
100.371173068359
100.371649197402
100.371958559959
100.372120897197
100.372177942924
100.372234988597
100.372271846524
100.372330298746
100.372576249798
100.372514210123
100.37274749125
100.372645432856
100.372855961449
100.37304259987
100.372939986631
100.372922693773
100.372616566982
100.372488498309
100.372208729022
100.371745864284
100.371243444442
100.371175943176
100.371366928933
100.371500779091
100.372104256693
100.371653847419
100.37179397768
100.372162993797
100.372307623715
100.372541581668
100.372564236948
100.372704450379
100.372605645395
100.372918133178
100.372787027352
100.372833044668
100.373139650153
100.37304878157
100.373018289238
100.372847080664
100.372658739571
100.372901584387
100.372977199201
100.373073846956
100.373170316864
100.373223019974
100.373173289904
100.373035563309
100.373070873698
100.372817956207
100.372797849167
100.372617943576
100.372233707764
100.372233421954
100.371699807944
100.371242173079
100.371156485708
100.370874826074
100.37077191932
100.370725536541
100.370649054695
100.371545511111
100.372092129714
100.372169603322
100.372401157714
100.372415616852
100.372719173242
100.372891079673
100.372655737897
100.373086346508
100.373055178056
100.373180168329
100.373266007042
100.373372968527
100.373448599685
100.373539298072
100.373626044071
100.373743298798
100.373842776006
100.373968889354
100.374073483451
100.374196766454
100.374295524111
100.374401834293
100.374333910137
100.374532183207
100.374448846855
100.374679774737
100.374676662008
100.374794263174
100.374709856264
100.374679407695
100.374565954773
100.374554672469
100.374341460808
100.374073781901
100.373665024173
100.37326908829
100.372970718919
100.372465186136
100.372362285467
100.372202477693
100.372143906695
100.37213582736
100.371891636586
100.371774336409
100.372004439755
100.372007780018
100.372058334557
100.372139860058
100.37189807059
100.371656613944
100.371402907517
100.371111689018
100.370785247788
100.370318034276
100.37059594378
100.370992221106
100.371278015269
100.371545572113
100.371805947701
100.371767025379
100.371484732045
100.371204144697
100.370908171035
100.37051623279
100.369992285372
100.370334936012
100.36983456788
100.369308534008
100.368819702643
100.368400969052
100.367719747435
100.368121147076
100.36872165794
100.369099967599
100.369561550405
100.369526541028
100.369397653641
100.369121657832
100.369004437331
100.36897635958
100.369161881899
100.368709184999
100.369458438258
100.37148413913
100.371860381531
100.372263998059
100.372289021085
100.373238184335
100.37311740482
100.373586508243
100.373700746778
100.373929007289
100.373917576737
100.374038088314
100.3742300476
100.374331446394
100.374434242353
100.374513895054
100.374423317177
100.374607429856
100.374548758748
100.37476011541
100.374758406912
100.374860919782
100.374767023232
100.374747466861
100.374637106952
100.374395526503
100.374201339587
100.37379562932
100.37346187529
100.373150294297
100.372688228052
100.372555148039
100.372253517085
100.372363440071
100.372168750316
100.372302932808
100.372297375025
100.37242908146
100.372204571958
100.372217928651
100.372323185923
100.372392822768
100.372347227498
100.372430903362
100.372186412371
100.371956934383
100.371711803366
100.371427674221
100.371120728253
100.370766462663
100.370312181416
100.369888317407
100.369471913087
100.369866735015
100.370320815869
100.37060567671
100.370980563897
100.371295146019
100.371573609178
100.371826754159
100.372080370728
100.372097945043
100.372011549208
100.371544314018
100.371949676516
100.371435074624
100.370961007675
100.371426808759
100.37097007268
100.371200300615
100.370833875995
100.372067974951
100.370866680403
100.370144372219
100.369305652605
100.368534416748
100.367945826412
100.367565920953
100.367124232693
100.366436354318
100.365561559604
100.364067704526
100.363958859633
100.363418803705
100.363115130359
100.361859298796
100.360783267097
100.360380975911
100.360158519037
100.354014661577
100.354617930187
100.35375239205
100.354250487433
100.354042259928
100.355677656909
100.356474132946
100.355570915919
100.354212509275
100.355717598196
100.355245056284
100.35559396919
100.356432531591
100.35656104312
100.355485352244
100.355695348233
100.358744226493
100.354312110319
100.354036464304
100.356044243961
100.356141447561
100.3566089781
100.358069600526
100.359508154362
100.360366175758
100.360016092371
100.358307858901
100.359323984732
100.360513239407
100.359385688785
100.357990670842
100.358023005306
100.359786542251
100.361237301275
100.363122303964
100.364615074322
100.365311546495
100.363645635159
100.364989216511
100.366481787833
100.366965721644
100.368405854476
100.36763562218
100.368784299853
100.369708306984
100.370525350562
100.371159120214
100.371730962861
100.371900417278
100.372158162298
100.371965369896
100.371194725101
100.371575033237
100.371416968015
100.372343417678
100.371432346306
100.368885577095
100.36824342346
100.367413696155
100.366624092241
100.366028366562
100.365679756931
100.365421814299
100.365095518176
100.364669901205
100.363750478755
100.3634592151
100.363573197254
100.363664096542
100.363689231669
100.363350799692
100.363053911764
100.364260954576
100.364589957302
100.365488055185
100.366876020058
100.368853033983
100.369273178299
100.367316659668
100.365744962224
100.364604347356
100.363981544554
100.36362925987
100.363448609359
100.363439969843
100.363637363211
100.364025525368
100.364553640906
100.365191580742
100.365960973909
100.36691601105
100.368145745029
100.369693053439
100.371536298799
100.373560336272
100.375567895008
100.377403399341
100.379050409322
100.380503193516
100.38174947569
100.382675640625
100.383136811173
100.383100223776
100.385373789053
100.38724681882
100.388518667587
100.389088240539
100.389091946326
100.388428193453
100.387082554546
100.385191377185
100.382924426209
100.380449580496
100.37797044946
100.375556131584
100.373216089465
100.371009667174
100.369067017703
100.367467947136
100.366224270987
100.365276866888
100.364548584486
100.363996202856
100.363613685829
100.363377966901
100.363284409977
100.363405158773
100.36389750597
100.36499571153
100.366838683133
100.368878379225
100.370708389858
100.371216390414
100.372678437229
100.373531314346
100.373399464428
100.373699192714
100.373407251601
100.373944708719
100.37407150148
100.374055279967
100.374166690699
100.374155433848
100.374265567939
100.374366917769
100.374451122078
100.374583265417
100.374504504046
100.374674563051
100.374635079427
100.374820814861
100.374827948081
100.374916284991
100.374840303585
100.374817394587
100.374711756391
100.374471822149
100.37429150362
100.373806407686
100.373611710885
100.373386626048
100.373233419868
100.372972424406
100.372802138868
100.372515406631
100.372556172928
100.372505500753
100.372522842005
100.372624893107
100.372549085324
100.372777266351
100.372612253988
100.372356660034
100.372548088495
100.372589459041
100.372623450094
100.372699547628
100.3725025954
100.372467073964
100.372133579427
100.371877594455
100.371624508546
100.371316456212
100.370988586564
100.370597432278
100.370323192106
100.37053732916
100.370938682016
100.371262826737
100.371576497577
100.371828776261
100.372084940815
100.37235282724
100.372342848957
100.372409783403
100.372319033393
100.372133661773
100.372312519193
100.372117061459
100.372365126959
100.371909896658
100.372346142097
100.37194941914
100.37160933792
100.371850319246
100.371979029639
100.37175615329
100.372571020805
100.37190695812
100.36949209762
100.3675551043
100.3662206511
100.365431695532
100.364882684156
100.364382099901
100.364154281087
100.363926230765
100.363765021478
100.363591467165
100.363462835305
100.363303122145
100.363147937763
100.363181921906
100.36298773865
100.363465522274
100.363547161271
100.363726861557
100.363592471422
100.363533246016
100.363753547808
100.363901049713
100.36405560248
100.363546738518
100.363942930788
100.363624293116
100.363302715289
100.362380640394
100.361055768865
100.36095628047
100.359952005731
100.359835453003
100.354368496839
100.355072869928
100.35490857456
100.356235886128
100.356200154225
100.357722029662
100.358578520478
100.357804199053
100.357027818197
100.357539046968
100.35792778618
100.357908882733
100.358269661133
100.358715506471
100.357846203206
100.360515547054
100.360378863791
100.358631936249
100.360492802463
100.360503969561
100.356798858582
100.356655641492
100.355311978783
100.358751006413
100.361168155864
100.364292325388
100.366997732905
100.368432500461
100.369048687386
100.370157299889
100.370892897031
100.37109790143
100.371033248315
100.371476656569
100.371321051711
100.371560154982
100.371557155874
100.371338692142
100.371466648018
100.371192728445
100.370894934599
100.371225094994
100.371399746699
100.371304731204
100.371031289726
100.370615554757
100.369999579124
100.370715472584
100.370768775228
100.371148523718
100.371105736044
100.371341905884
100.371544843545
100.371542903979
100.371281976206
100.371538401431
100.371583284065
100.371173794667
100.371377843915
100.371490553448
100.371044012129
100.371055615134
100.370522376683
100.369643387494
100.368545637815
100.368097782925
100.36626983893
100.367827407794
100.367679060267
100.368855894968
100.369769129466
100.370696974028
100.371147399117
100.371131075438
100.371503436637
100.371337981008
100.371704944269
100.371525876748
100.371524744145
100.37156301864
100.371503851567
100.371455326549
100.371330605326
100.370183251062
100.371085460654
100.371279093486
100.370255363815
100.367630183397
100.368863720833
100.369161333189
100.370491937478
100.371180422786
100.371228087083
100.370645044411
100.368025803235
100.369423650765
100.369885586915
100.370828879991
100.371294277238
100.37095780354
100.370716368433
100.370520468469
100.370057990299
100.368820284155
100.369805173139
100.37087431331
100.370940956884
100.371021322763
100.369427405748
100.370217548792
100.37041928848
100.371143789016
100.37163142685
100.37174839647
100.371769230272
100.371842331733
100.371888422555