/*--------------------------------*- C++ -*----------------------------------*\
| =========                 |                                                 |
| \\      /  F ield         | OpenFOAM: The Open Source CFD Toolbox           |
|  \\    /   O peration     | Version:  v1612+                                |
|   \\  /    A nd           | Web:      www.OpenFOAM.com                      |
|    \\/     M anipulation  |                                                 |
\*---------------------------------------------------------------------------*/
FoamFile
{
    version     2.0;
    format      ascii;
    class       volScalarField;
    location    "1.8";
    object      p;
}
// * * * * * * * * * * * * * * * * * * * * * * * * * * * * * * * * * * * * * //

dimensions      [0 2 -2 0 0 0 0];

internalField   nonuniform List<scalar> 
80683
(
100.07614389908
100.078112567211
100.074953332261
100.07927996172
100.086306629517
100.086441764252
100.084493683592
100.085043516534
100.085027606192
100.085406846944
100.085903466832
100.085671763706
100.087396262332
100.087011260571
100.089551683759
100.089553369768
100.086124933659
100.081311072172
100.080225607322
100.080177703905
100.081182605512
100.081039844782
100.080257887356
100.081699073195
100.088147247373
100.088198091578
100.082485239118
100.080680189907
100.080576061416
100.079864054182
100.079733165363
100.080719385455
100.080670310727
100.082421094774
100.08796985754
100.08780035698
100.08160281739
100.080221190872
100.080953250341
100.080906248704
100.080023056233
100.08007191666
100.08119438862
100.085932127329
100.089202378351
100.089052481065
100.082109599877
100.081597048006
100.079404404267
100.078887155812
100.078814937631
100.078445259068
100.077911791395
100.076776558624
100.077868466645
100.079020028944
100.079182480916
100.078346557663
100.077312392534
100.07615998736
100.075787764609
100.076377246479
100.076302002318
100.075625192952
100.076177815228
100.07730675814
100.078282088842
100.079262623329
100.079234070392
100.078042074759
100.076942355503
100.078117549561
100.078542831772
100.07887231824
100.078874940934
100.079375762131
100.081812842258
100.082520830081
100.079915199585
100.083071270297
100.08618917145
100.087842340752
100.085685465833
100.085435536559
100.086599622656
100.084594979895
100.082116941642
100.077921210514
100.083221615292
100.071318527624
100.059288659833
100.06501150024
100.066136623463
100.078322600173
100.074223100007
100.075439141541
100.077595146276
100.075600432703
100.074187414046
100.073674877315
100.076249509466
100.077750395441
100.073686278872
100.072745792931
100.075081584027
100.072286747665
100.07116707255
100.072196439633
100.072199657511
100.0712154146
100.072297577836
100.075026379141
100.072696109224
100.073493825162
100.07797573616
100.076763507476
100.073997990518
100.074362683593
100.075690268391
100.077645836503
100.075379962963
100.074086302297
100.078633381969
100.078667155244
100.075670429693
100.079211036893
100.085447184117
100.09084608705
100.084213314271
100.084120806667
100.088402463713
100.103697265561
100.072310303101
100.072850637717
100.05672516812
100.030262257911
100.031179729059
100.026723395095
100.027134169457
100.033522461635
100.064271113652
100.076615644021
100.07272443158
100.07252885777
100.079428331728
100.065709538393
100.06646020928
100.066389824038
100.066581007624
100.076287066268
100.07143835465
100.071426063923
100.076230063108
100.066603328439
100.066420610896
100.066443382387
100.065523626034
100.06435286697
100.066404636051
100.064622303826
100.025118557767
100.02827469913
100.029276266548
100.029132593762
100.028345392959
100.028494687445
100.029960020823
100.030618142391
100.033931862262
100.031049040549
100.032057535879
100.035644342939
100.035643705594
100.032050615634
100.030981717819
100.033658829457
100.033159004499
100.026439108572
100.028143854067
100.034898891694
100.035333157918
100.034214601508
100.034099690588
100.035214109147
100.035107878197
100.034225846926
100.034619328434
100.03492190589
100.029672058505
100.030444606126
100.031641089525
100.031590156861
100.0303002866
100.029406132371
100.030322435824
100.029584438475
100.033906502323
100.035139350486
100.035845606073
100.036095111772
100.035269675425
100.035309184348
100.036247427767
100.036115987583
100.035474676326
100.035749433976
100.035960732013
100.035967888951
100.03520513877
100.034789816566
100.034713290643
100.034973758436
100.034468165493
100.034265873355
100.035391449937
100.033562949237
100.033346899397
100.0335127718
100.033669551581
100.033170030545
100.033161001266
100.033771874846
100.033793573139
100.033648497303
100.033935168145
100.033970609243
100.033983463438
100.03384228966
100.035579280638
100.035499086879
100.035764479037
100.035607531896
100.033635055449
100.031296766622
100.031216202228
100.030988780742
100.030933459107
100.030915268292
100.030926968716
100.030901266454
100.031007835292
100.031273592868
100.03134704323
100.031658800398
100.031689270593
100.03177929976
100.031706379257
100.031610523272
100.033766022484
100.033818665776
100.031533578269
100.029704879284
100.02939385181
100.029210370349
100.028921959432
100.028819086427
100.028620820141
100.029111371215
100.029218687664
100.028941755464
100.029338846392
100.029500487698
100.029862903952
100.029956047302
100.030097191051
100.03002299328
100.029876630958
100.028463994099
100.028115004588
100.027647741866
100.027294015886
100.026863810735
100.026717081163
100.026451031008
100.026371025957
100.026663026474
100.02710134873
100.02758517791
100.027909673592
100.028389843016
100.028599841221
100.028796948766
100.028713249787
100.027632743292
100.027173417092
100.026478903993
100.025734041265
100.025082031492
100.02439184118
100.024120899885
100.023941923194
100.023554314908
100.023961530162
100.024931052081
100.025593714988
100.026288962554
100.027017571761
100.027402281903
100.02773012295
100.026862832165
100.026711487696
100.025883703424
100.024599534355
100.023329214622
100.022220929013
100.021120125897
100.020581455634
100.020438487697
100.019774466544
100.02043264395
100.022123949372
100.023103186112
100.024446268357
100.025643468545
100.02629868763
100.025075213637
100.026100198119
100.025819630569
100.024300222565
100.021991439498
100.019768633702
100.01822237741
100.016471325209
100.015141149008
100.015084565825
100.013917539361
100.01502511052
100.018115598555
100.019505276816
100.022013955778
100.024105101255
100.022220414847
100.023237534046
100.025178527371
100.024818859653
100.022005015324
100.017728341428
100.013450550632
100.011711211996
100.009070520321
100.005869439567
100.006835602051
100.004888474097
100.006235837448
100.011596235037
100.013332783458
100.018617846762
100.008387617035
100.01402524007
100.012275799718
100.0167982231
100.017735263691
100.012577424946
100.0026011438
99.9949783184874
99.9965738010933
99.9929078482569
99.9833486393345
99.9866920403893
99.9862531169911
99.9884780175638
99.9950504463952
99.9963022921649
100.006550726736
100.021920487372
100.030632999695
100.031149311114
100.041879871613
100.037071179529
100.027687367038
100.016726026687
100.000805132872
100.001576259747
99.9976370433373
99.9871676017415
99.9820968573321
100.014759266111
100.038294184944
100.041372278188
100.023705450499
99.9889534236008
99.9845550104949
100.078874470519
100.15863765578
100.094845441632
100.099365559735
100.09193246408
100.084314144114
100.083364769575
100.087242131848
100.100074235855
100.112583818553
100.132603551382
100.1100503104
100.094641227258
100.091573538822
100.066750707621
100.057070949291
100.052847857736
100.055514573102
100.065790999852
100.079466802355
100.169196302596
100.189774434214
100.194130375533
100.181899438144
100.19410691302
100.195949306885
100.229786017341
100.28189790821
100.185533824356
100.207832623526
100.270844105747
100.237394468207
100.272373849063
100.294619607402
100.22258610618
100.200507638572
100.247269151645
100.211908959755
100.173786331433
100.204001214152
100.14633734979
100.138017846446
100.186383662041
100.162965350528
100.171531131252
100.264492394403
100.311560025826
100.279056305005
100.282659218679
100.321292320016
100.305359171766
100.281623900248
100.388515378896
100.416912995753
100.382056484045
100.407746584264
100.412787934812
100.365443842918
100.312241026196
100.358648831179
100.298142511069
100.407405479292
100.431230229524
100.408458938531
100.423762581684
100.450027269334
100.408488178263
100.35122739041
100.376422003558
100.298635191372
100.336256775074
100.417776603734
100.446793572945
100.45307004516
100.459137349792
100.465367588297
100.46689880579
100.465848812085
100.466084048674
100.466393826324
100.466418230533
100.466630500026
100.466196663557
100.466631436269
100.466817707107
100.467098874951
100.467716961409
100.468487228216
100.469224696688
100.469779836585
100.468957469954
100.470220390171
100.467793105888
100.472226330755
100.468609197
100.470932749401
100.473160923344
100.439670090577
100.411723257296
100.37799966213
100.357787626206
100.373858983558
100.371525478782
100.370903218556
100.371589453536
100.372359045501
100.373104270843
100.374005616598
100.375128431345
100.376417716915
100.377782280601
100.379082616977
100.380109072962
100.38069598185
100.379450438334
100.378153963512
100.376874233904
100.375618134282
100.374362048714
100.373088642703
100.371817008771
100.370602650766
100.369493205105
100.368525331191
100.36770149098
100.367006028937
100.366442619518
100.366052375004
100.365896957966
100.366066651592
100.366646706629
100.367666426433
100.369003783766
100.370451400513
100.371564382563
100.371952671373
100.371975147449
100.371931486804
100.372104027659
100.372187538438
100.372257193806
100.372301945614
100.372328139593
100.372451044236
100.372515657618
100.372777807825
100.372909588562
100.373029902488
100.372978990276
100.372905072754
100.372792092577
100.372694958087
100.372561637516
100.372590797691
100.372530330331
100.372746790958
100.372864286235
100.372932989472
100.37279835872
100.372666118896
100.372406715408
100.372317163056
100.372215801892
100.372198955126
100.372170470268
100.372100284538
100.372031128193
100.371928706823
100.371834279103
100.371783537093
100.371954961403
100.372010147059
100.37207134088
100.372105355171
100.372129828635
100.372196949911
100.372266042562
100.372525762182
100.37267487502
100.372815892305
100.372655942291
100.372525090029
100.372370412661
100.372129670592
100.372102768135
100.372038215701
100.372003649751
100.371971880367
100.371927963734
100.371884504203
100.371797570828
100.371716455672
100.371652544918
100.37181297614
100.371846320775
100.371885443353
100.371908675229
100.371941096566
100.372011817536
100.372040583704
100.372247221368
100.372389774244
100.372484556481
100.372468382181
100.372369536898
100.372200719643
100.372019175812
100.371979262574
100.37194732487
100.372197040888
100.372346896325
100.372244340204
100.37212514899
100.371929115723
100.371886996385
100.371834481976
100.371821835056
100.371803010967
100.371770590875
100.371742663364
100.371668545001
100.371603787014
100.371528894001
100.371673788667
100.371693197942
100.371709598176
100.371741853715
100.371764953728
100.371795664374
100.371799823832
100.371995350949
100.37210590112
100.37191835017
100.371826100468
100.371684653505
100.371721412907
100.371678940583
100.371649359505
100.371627132906
100.371624432871
100.371595671931
100.371509246105
100.3714526384
100.371395165124
100.371526640093
100.371547191678
100.371558693988
100.371577462062
100.371584850546
100.371613744922
100.371578569388
100.371724784361
100.371764261993
100.37181280175
100.371676416464
100.371640809092
100.371571749599
100.371542483895
100.37153007766
100.371546438453
100.371488668124
100.371538062381
100.371500950481
100.371478153415
100.371464487444
100.371449541816
100.371368788966
100.371275065724
100.371257864661
100.371365648478
100.37134967458
100.371382218143
100.371384861472
100.371418259158
100.371416506359
100.371486864905
100.371446287814
100.37159821717
100.371452007432
100.371393661346
100.371199022004
100.371236123236
100.371184669845
100.371397623982
100.371364596642
100.371409227865
100.371338281924
100.371372296232
100.371397354684
100.371350603194
100.37128662901
100.371335399948
100.371284408016
100.371285351782
100.371171850724
100.371083775831
100.370959791548
100.370684967182
100.370977133073
100.371112290304
100.371144898287
100.371224277565
100.371227388517
100.371259072408
100.371296884702
100.371319483392
100.371308704066
100.371363232554
100.371299395926
100.371236681372
100.371190431932
100.371073795872
100.371241124995
100.371089399373
100.371236071692
100.371305608334
100.371206070572
100.371241620141
100.371231837986
100.371206946402
100.371167168247
100.37116760693
100.3710876497
100.371047051321
100.370905216214
100.370499179097
100.370932518319
100.371039394103
100.371067154564
100.371117485995
100.371122259384
100.371156128623
100.371171260761
100.371180768683
100.371138068682
100.371192537395
100.371064692699
100.371090629672
100.371172150725
100.371214593529
100.371169446359
100.371068674628
100.371051455118
100.370712950272
100.370560505146
100.370838050097
100.370739820272
100.371025371567
100.370805097752
100.371050345842
100.371124131742
100.371071923797
100.371106245739
100.371073097437
100.371080072806
100.371059394673
100.371037059838
100.371034291309
100.371000762219
100.370904322652
100.370514661895
100.370943248515
100.370983391581
100.371017057764
100.371034185779
100.371030259975
100.371082071593
100.371105004898
100.371149021987
100.371140125402
100.371171964368
100.371227820813
100.3712955242
100.371358156819
100.371420848391
100.371360755246
100.371394516382
100.371457218801
100.371522818732
100.371592258067
100.371668748899
100.371742769217
100.371824687113
100.371901033185
100.371989578759
100.372068369964
100.372160975372
100.372280015859
100.372350129299
100.37240866482
100.372419064856
100.372550330146
100.372628593024
100.372896590082
100.373024257911
100.373141366844
100.373132388981
100.373041059777
100.372913387042
100.372635799314
100.372408470803
100.372259090032
100.372125215124
100.372018286519
100.372070383749
100.372155410892
100.372357882786
100.372490856745
100.372781118301
100.372657088972
100.372502180591
100.372287569228
100.372101252252
100.372053502928
100.371909856412
100.371787750726
100.371643498952
100.371523270541
100.371561693445
100.371613032125
100.371810544027
100.372016658494
100.372129179545
100.372226086843
100.372369800201
100.372315902642
100.372184917164
100.371997760781
100.371831636891
100.371817263443
100.37169923096
100.371581742998
100.371478825253
100.371274701894
100.371000491074
100.370698203525
100.370604639479
100.370398180396
100.370520668987
100.370657317437
100.370935228355
100.371243516219
100.370995010623
100.370775435424
100.370597456646
100.370389652462
100.370604102872
100.370608453896
100.370924252691
100.370985108521
100.370886035954
100.3710302871
100.371090164122
100.371277181722
100.37124194485
100.371297395055
100.371317083357
100.371321661423
100.371527959649
100.371579661467
100.37164266221
100.371678364786
100.371737368106
100.371783557743
100.371852414575
100.371911505665
100.371986159609
100.372037844073
100.372113417316
100.37217530104
100.372240012904
100.372371055175
100.372448151039
100.372509333452
100.372496976286
100.372661139085
100.372761502451
100.373027784107
100.373128491119
100.373264480162
100.373220642391
100.37321280879
100.373229257634
100.373045926396
100.372814790014
100.372681507018
100.372560887289
100.372239441295
100.37183723463
100.371663524107
100.371539430346
100.371341045933
100.371193887197
100.371057746383
100.370942365459
100.37080246956
100.370707185025
100.370594630028
100.370719796027
100.370889909791
100.371077894554
100.37120742967
100.371337557387
100.371427209289
100.371559971858
100.371682788891
100.371820074505
100.371939507375
100.371770270948
100.371989405006
100.372274746709
100.372264353846
100.372483256937
100.372418838003
100.372287755178
100.372047545378
100.37212442671
100.372235743634
100.372256318284
100.372331941376
100.372469225391
100.372535215297
100.372597133957
100.372597629542
100.372780547779
100.372872784061
100.373126619928
100.373222381055
100.373332319998
100.37331077001
100.373327406246
100.373147524436
100.372950901157
100.372656122148
100.372332113131
100.371989887932
100.371415909492
100.371164476172
100.371001775496
100.370838478619
100.37064855822
100.37048717506
100.370303862607
100.370152212848
100.370034274547
100.370242108713
100.370448133358
100.370667425776
100.371001227512
100.371051736472
100.371252765905
100.371060500224
100.371300436001
100.371490802976
100.37134342856
100.371736449044
100.372115470912
100.372296160498
100.372324578575
100.372221464653
100.372331793554
100.372398579649
100.372560504243
100.372608149339
100.372680929358
100.37269103016
100.372873274865
100.372965396568
100.373207193351
100.373314565153
100.373445655537
100.373419185987
100.373441049392
100.373260379233
100.373090277835
100.372807725278
100.372456711303
100.37214752278
100.371611412723
100.371385688449
100.371069529652
100.370878084468
100.370819675856
100.37059152
100.37043107354
100.370259921645
100.370098231544
100.369869061277
100.369642498024
100.369435575232
100.369257202157
100.369065423313
100.368810428414
100.368590862021
100.36889154954
100.369190564659
100.369376648922
100.369541581125
100.369719507205
100.369914703709
100.370161095396
100.370369806866
100.370514745496
100.370648561933
100.370868876139
100.370726173522
100.370566140699
100.370142593243
100.3702000477
100.37040659708
100.370392598002
100.370987375684
100.371385875468
100.371908478438
100.372140958717
100.372164935691
100.372076258617
100.372183533202
100.372253730559
100.372093183088
100.372083768134
100.372176547198
100.372250777464
100.372362398566
100.372475828858
100.37266495422
100.372686586552
100.372771294828
100.372777917762
100.37296465233
100.373067155378
100.373299561224
100.373418368365
100.373587843228
100.373492256118
100.37357513383
100.373392876013
100.373210816747
100.372921708275
100.372589085639
100.372272512721
100.37174944038
100.371511327503
100.371088338058
100.371028977396
100.370873304484
100.370911839065
100.370854613483
100.370968809372
100.370788091461
100.370606365344
100.3704522359
100.370280220058
100.370081412296
100.36983316259
100.369595197543
100.369357504583
100.369115526169
100.368793721533
100.368434826975
100.368108511404
100.367840496234
100.367446384815
100.367695702236
100.36806919239
100.368347594096
100.368685289364
100.368937715778
100.369146970491
100.369399115228
100.369644595668
100.369899013602
100.370075189847
100.370242058474
100.370396614144
100.370620491367
100.370583389036
100.370465568663
100.370243620002
100.370121708821
100.369959452886
100.370140250573
100.36986895195
100.369645646036
100.369283273873
100.368880295505
100.368438309652
100.367901147103
100.367202883152
100.366133567699
100.364728047427
100.363946985759
100.36426705894
100.36498477404
100.365645914052
100.366318841294
100.367069667848
100.367663266149
100.368220171133
100.368692275776
100.369091858806
100.369489646355
100.370098016965
100.368407523632
100.367712672182
100.367267484491
100.366824061065
100.366409307822
100.366093836538
100.365692467652
100.365202711156
100.364240961539
100.363311791135
100.360254503518
100.357779397106
100.361927485295
100.361318080544
100.36071208263
100.357556102447
100.357758519137
100.357236640892
100.359751216799
100.361037621298
100.361798039151
100.362982187135
100.363845116977
100.36512163143
100.366142998267
100.366829364083
100.367564007504
100.368138715556
100.368701029341
100.369149995942
100.369540174667
100.369880590253
100.370313933124
100.370085321951
100.37067807934
100.368885896871
100.37210717873
100.372383275087
100.372441701624
100.372715763452
100.372920441566
100.372924532758
100.372568405715
100.371796261167
100.370804603853
100.369421382482
100.367436852045
100.365731874068
100.364317407589
100.366015396779
100.366532638601
100.36285741566
100.360631221088
100.359890866578
100.349615959329
100.353125807002
100.352015427427
100.355421208603
100.357782287952
100.366369443035
100.367955599497
100.370207584038
100.370096194947
100.370314835167
100.370476725589
100.370707462694
100.371010657882
100.371285714696
100.371559520263
100.371791485985
100.37116154429
100.369810758393
100.3682971281
100.3669994093
100.366134418498
100.365759091718
100.365784202795
100.366099993556
100.366611135705
100.367239081356
100.367963801519
100.368797732293
100.369765820677
100.370882316609
100.372119617608
100.37344620272
100.374814886513
100.376199611751
100.377604400932
100.379033620651
100.380444003777
100.381739807396
100.382887660439
100.38186194824
100.380757636038
100.379636774635
100.378486399894
100.377325467691
100.376190766697
100.375069842797
100.373926908732
100.372732634614
100.371502009924
100.370304132864
100.369205971118
100.368250308765
100.367452170447
100.36681160969
100.366345647329
100.366101629566
100.366126049908
100.366488252611
100.367239307558
100.36834613015
100.369690788182
100.371050740958
100.371911010171
100.372096014731
100.372217748287
100.372306115548
100.372339780095
100.372414896033
100.372553033344
100.372734894936
100.372745597123
100.372857633363
100.372884127366
100.373110473949
100.373231529444
100.373412243591
100.373575803477
100.373590877541
100.373665383357
100.373741679951
100.373712267683
100.373538270426
100.373362532979
100.373008803643
100.372743429806
100.372537373574
100.372367734476
100.372033749387
100.371672139201
100.371262120157
100.371146308701
100.37100437923
100.37100750861
100.371130349122
100.371049579013
100.371322932109
100.371208293531
100.371019484677
100.371133873873
100.370918570131
100.370757940011
100.370600994294
100.370386134258
100.370144840844
100.369905719174
100.369638027148
100.369332823226
100.369061739432
100.368600311537
100.368820142042
100.369180554218
100.36948602352
100.369742525689
100.369980411964
100.370229585093
100.370440153942
100.370601335701
100.370776055156
100.37100301142
100.370845051568
100.370880793262
100.370923662045
100.370707558308
100.370329846308
100.369975006828
100.369835049199
100.370007177636
100.370245683456
100.370395093012
100.37218883051
100.372090021606
100.372680349244
100.372519929918
100.372249902252
100.372597038957
100.372574532129
100.372727408969
100.372945220436
100.372878514291
100.373003376634
100.373083248605
100.373365158373
100.373662159107
100.373839099134
100.373934703474
100.373876570588
100.373754369387
100.373664040853
100.37352172301
100.373178296962
100.372902243775
100.372490355286
100.37214515496
100.371804397468
100.371410576862
100.371274217693
100.371009306585
100.371145046907
100.371004492398
100.371144706473
100.371242975203
100.37144974567
100.371365781043
100.371600423411
100.37143530225
100.371455337599
100.371308186809
100.371184800373
100.371046042487
100.370877133347
100.37068600607
100.37049451273
100.370276807204
100.37002297176
100.369742645717
100.369450890334
100.369112811368
100.368690200688
100.368222950358
100.367869554007
100.367429369212
100.367754784879
100.368196731632
100.368637600728
100.368878551193
100.369205343689
100.369517495473
100.369808565408
100.370062707646
100.370297419429
100.370513956407
100.370703757625
100.370877725866
100.371063757229
100.371271376051
100.371410588743
100.371304418344
100.371196859749
100.371192516438
100.370917247268
100.370021187598
100.369175085307
100.36887153832
100.369096109189
100.369408979621
100.370116461199
100.370563399143
100.370444163659
100.369480178266
100.371361229136
100.369653472348
100.371965989825
100.372137633919
100.373470830031
100.372202505729
100.371955185361
100.371648397633
100.371052115158
100.370426375002
100.369756997098
100.369015198169
100.368413229504
100.367889273824
100.367228274999
100.367280479373
100.365237089899
100.364672577923
100.363734087977
100.362984404686
100.36078152498
100.360232849206
100.359333746403
100.358894998415
100.349019916237
100.353382037928
100.351004230995
100.350671407
100.353042705753
100.354282307676
100.352703078649
100.353287682914
100.353616095089
100.359203383998
100.356895583544
100.358372991457
100.356557135837
100.354780672618
100.355495777455
100.35767241781
100.358994122416
100.360028261602
100.360173481556
100.35800797418
100.358779892031
100.361133257386
100.36235090936
100.364076547406
100.363719367418
100.365122962931
100.366179209452
100.367229695245
100.368020220907
100.36872032509
100.369232102723
100.3696444356
100.369976007403
100.370297916753
100.370444916304
100.37045110649
100.370560261182
100.370659188217
100.369896732101
100.368818800263
100.371349652169
100.372646350605
100.372854877491
100.372608322355
100.372657303564
100.372849768219
100.372855754946
100.373113571377
100.373080923814
100.373203095519
100.373304992159
100.373612269428
100.373716169821
100.374055410985
100.374181215855
100.374107963361
100.374135123152
100.374055561328
100.374013313065
100.37398028549
100.373853618982
100.37364115386
100.373345996175
100.373069051119
100.372993727571
100.372485903415
100.372240304561
100.371985141713
100.371875716544
100.371634952981
100.371422846551
100.371165056119
100.371264321118
100.371253758362
100.37140945952
100.371556719056
100.371472368709
100.371662520412
100.371595836694
100.371734768669
100.371623233635
100.371527415375
100.371380087227
100.371376219241
100.371174073331
100.371025451437
100.370844259817
100.37065553434
100.370426444365
100.370203197593
100.369920888649
100.36962229936
100.369321780367
100.36896281889
100.36853851603
100.368197980101
100.368414597756
100.368851377009
100.369209928921
100.369521682995
100.369821777659
100.370101531452
100.370333569304
100.370550480204
100.370755043421
100.370945687799
100.37110755673
100.371271639576
100.371283094836
100.37134017533
100.371166974476
100.370979836342
100.371206472872
100.370434827367
100.370664954962
100.369813558745
100.370223060583
100.370603643686
100.370672078504
100.370940444637
100.3707625666
100.371136212459
100.369315634583
100.372819050704
100.374348798909
100.373284558503
100.372359615004
100.372766840195
100.371695550099
100.371261787237
100.370584186349
100.369583159905
100.368888440878
100.368168494406
100.367479337335
100.366839899009
100.366217643657
100.365521591977
100.365717190667
100.366285505309
100.367071540898
100.367825471774
100.36867829436
100.369608323264
100.370411179159
100.371177243628
100.371573458961
100.372072047572
100.372625047348
100.372245675812
100.371846629351
100.372047316219
100.372283989294
100.372466128803
100.372408200376
100.372429024617
100.372672242093
100.372653993631
100.372893146025
100.372923251512
100.372954149375
100.373169029454
100.373216983945
100.373460706869
100.373773025962
100.373934241497
100.374021918586
100.373974470641
100.373956475344
100.373947338896
100.373839655479
100.373576720359
100.373175077445
100.372877406331
100.373183917731
100.373337084451
100.373553992412
100.373875415666
100.374008077033
100.374094867673
100.374154506344
100.374048607101
100.373926861017
100.373704200404
100.373619259874
100.373482186018
100.373188952838
100.373145624771
100.373054383423
100.373070307199
100.372790630514
100.372801700052
100.372613439287
100.372501933305
100.372456506814
100.372741420703
100.372710548221
100.372960360731
100.373003505569
100.373073750971
100.373091236149
100.372678421865
100.372774276952
100.372896192561
100.3730412459
100.373313364553
100.373385091536
100.373606335369
100.373978436859
100.374129414054
100.374117432057
100.374012254694
100.373811871849
100.37373086992
100.373535042343
100.373491549042
100.373408948618
100.373274884952
100.373055630056
100.372806353254
100.372440744678
100.372314091081
100.371903606265
100.371695287981
100.371541402523
100.371270341789
100.371379166509
100.371269663706
100.371552647498
100.371428915336
100.371544985242
100.371616280901
100.371733246036
100.3716914911
100.371819608875
100.371772740662
100.371833796516
100.371741928813
100.371631046829
100.371497368584
100.371328181094
100.371148772024
100.370976986515
100.370771775466
100.370568924401
100.370312036193
100.370074950996
100.3697747656
100.369453502867
100.369131649753
100.368739683373
100.36827748058
100.367925201571
100.367414690413
100.366775674517
100.366116371283
100.36549648606
100.364619888324
100.363859899834
100.364743623403
100.365560056345
100.366204216703
100.36687540373
100.36744650849
100.367871322422
100.368051688557
100.367686038065
100.367375680166
100.366776881569
100.366119234866
100.365411004546
100.364432108786
100.365255899422
100.365783673095
100.366464850851
100.367006409041
100.367350050171
100.366717369847
100.366155935923
100.36533573902
100.365891731329
100.366422320113
100.366968125401
100.367561816303
100.36806586608
100.36845423953
100.368620451421
100.368117857929
100.367677922825
100.367275413127
100.366840735401
100.366123636254
100.36661967005
100.367204830978
100.367506820296
100.367855729406
100.368240499377
100.368746496489
100.369129507099
100.369410558083
100.369653928562
100.369889230372
100.370137868577
100.370340765991
100.370510965468
100.37067447766
100.370622160564
100.370349570886
100.370014581566
100.369565764429
100.36971031329
100.369852349162
100.370148746059
100.370551394242
100.370822377335
100.370726839202
100.37079634513
100.370915575202
100.370293559361
100.369864551088
100.370233049384
100.369768010032
100.369216650473
100.368488524117
100.36768315412
100.366635795504
100.365522563932
100.365101462611
100.366536883554
100.367749924571
100.368658520472
100.369440233463
100.370012437625
100.370478241964
100.370811477454
100.370591620453
100.370905059818
100.371047528784
100.371154013057
100.37110218648
100.370878596104
100.370940350648
100.370656510452
100.370798712634
100.371552977585
100.370146338572
100.372251592642
100.372723070541
100.374143450824
100.37298613665
100.373081171091
100.372217705954
100.371814523178