/*--------------------------------*- C++ -*----------------------------------*\
| =========                 |                                                 |
| \\      /  F ield         | OpenFOAM: The Open Source CFD Toolbox           |
|  \\    /   O peration     | Version:  v1612+                                |
|   \\  /    A nd           | Web:      www.OpenFOAM.com                      |
|    \\/     M anipulation  |                                                 |
\*---------------------------------------------------------------------------*/
FoamFile
{
    version     2.0;
    format      ascii;
    class       volScalarField;
    location    "2";
    object      p;
}
// * * * * * * * * * * * * * * * * * * * * * * * * * * * * * * * * * * * * * //

dimensions      [0 2 -2 0 0 0 0];

internalField   nonuniform List<scalar> 
80212
(
100.338171282202
100.337558514654
100.337508382127
100.340265974034
100.343817085624
100.34379288885
100.344109599484
100.344030464148
100.344551092509
100.346062155648
100.345388493916
100.344425310048
100.344739028301
100.345857943357
100.346479494027
100.344701532382
100.344130383528
100.3441159435
100.343797249916
100.343812069875
100.344380539197
100.344608450508
100.345487097437
100.347241954336
100.345648053388
100.34358031615
100.342631055671
100.342452049855
100.34288454003
100.343252289588
100.345859572224
100.345647756066
100.344902184791
100.344518155981
100.343085530425
100.343382278754
100.344108647749
100.343325954138
100.344776751142
100.346746164372
100.346667258212
100.344692026298
100.343276896915
100.344091807893
100.343371347833
100.343069557029
100.344495937414
100.344882140386
100.345618385636
100.345853445535
100.343249704746
100.34288572844
100.342460860075
100.342641054371
100.343590359678
100.34565768063
100.347250043385
100.345494302325
100.344620224681
100.344392659204
100.341300922745
100.341616811804
100.34107048494
100.341311954459
100.341051705921
100.340955854423
100.340519487165
100.340254909201
100.340748598582
100.340696666378
100.341048727202
100.340963433234
100.340751187413
100.34127606067
100.340583999927
100.340133022053
100.340378888207
100.340364558231
100.340437544113
100.340166854539
100.340160381778
100.340430333388
100.340355479865
100.340374932808
100.340147553315
100.340620667324
100.341313056822
100.34078321594
100.340980927556
100.341053735699
100.340692864528
100.34074206388
100.340244780197
100.340512271388
100.34094612949
100.341038309924
100.341300683814
100.341059368093
100.341602301274
100.341287312997
100.340264271074
100.340355650349
100.341539329592
100.341959721009
100.34140271833
100.342040104326
100.341529657875
100.341288942144
100.341451535664
100.341834600281
100.342221599849
100.34146207612
100.341998971415
100.341567462512
100.340369695185
100.3376003972
100.33919252339
100.33675117601
100.336832180611
100.336972366671
100.339686819455
100.338008097983
100.336034207345
100.337096524668
100.338046134035
100.338163846226
100.337868853563
100.338801216702
100.33899149386
100.337879897388
100.338211339002
100.338101934382
100.338058007573
100.337768090757
100.336631484753
100.33601219373
100.337858001482
100.337201365924
100.336241389661
100.336231433351
100.337204037298
100.337832590725
100.335986961754
100.336632918625
100.337820916725
100.338114458833
100.338154794745
100.338240309187
100.337885579039
100.338984286436
100.338793076264
100.337859964447
100.338155039136
100.338035310458
100.337084684103
100.33601993312
100.337995877696
100.339668670607
100.338842596974
100.33750104444
100.337568144308
100.339136401412
100.34028169273
100.338439884522
100.336534081239
100.337291942603
100.338102208128
100.338196096789
100.337486743969
100.336721684121
100.338594940566
100.340377155762
100.336762388559
100.327588710245
100.328148405345
100.328292790036
100.327848694314
100.32868943056
100.337042419295
100.337424086018
100.337454867002
100.33829688217
100.340001235055
100.33740733694
100.336610831833
100.335420497055
100.338636969101
100.33636666079
100.335806960864
100.334474751865
100.33562476631
100.335106930677
100.339032108483
100.33907668276
100.335134982945
100.335709640287
100.334833739789
100.335950403456
100.334428395639
100.337029413171
100.337542107054
100.33806282233
100.336503939817
100.338756544083
100.335448712938
100.33660080575
100.337397133242
100.337022380399
100.336947907476
100.336810742678
100.336746868835
100.336767214687
100.336565935827
100.336540049223
100.328492027218
100.326973916012
100.326686354928
100.326959788084
100.326994037769
100.326764173533
100.32712255696
100.327216166399
100.328573690398
100.328454784394
100.328642740309
100.329675780025
100.334827973351
100.334226142604
100.330861955058
100.329183467106
100.328093161573
100.328183543125
100.330034034756
100.329576459568
100.329541332311
100.329955248784
100.329573199559
100.328556762102
100.328406760389
100.328540461191
100.32866752153
100.327831493539
100.328282880556
100.328151446886
100.327612258932
100.328523089953
100.326977031265
100.327545275039
100.32755018555
100.3275298523
100.32765794143
100.327673281126
100.327605148155
100.3277177608
100.327823130597
100.327997221247
100.327388949728
100.327701536185
100.327955411905
100.327996335354
100.327976271635
100.328265889336
100.328537490786
100.328485746952
100.328056078201
100.32796273418
100.327607440852
100.327331547636
100.327175258018
100.327089863626
100.326736635146
100.326981787803
100.326947709575
100.326674486931
100.32750336277
100.32735619997
100.327370589601
100.327379710331
100.327379416257
100.327489502548
100.327510821109
100.327496994221
100.327569331651
100.327567363959
100.327686493541
100.327563452241
100.327529628933
100.327476125944
100.327580827438
100.327580554368
100.328249195712
100.327888139978
100.327897517378
100.327891166129
100.327956367354
100.327783127982
100.327677386913
100.327572753291
100.327641472621
100.327629867987
100.327453552423
100.326423587696
100.326351512693
100.326390281891
100.326402295805
100.326387370663
100.326476150961
100.326505453391
100.326506691771
100.326604491347
100.32657508956
100.326643073236
100.326567414322
100.326577423216
100.326542550101
100.326586780925
100.326587561793
100.326547090113
100.326579234456
100.327518874647
100.327523857831
100.327640825451
100.327519392764
100.32751390559
100.327447675885
100.32746267242
100.326435482039
100.325243612022
100.325223157027
100.325180512926
100.325227555806
100.325247956018
100.325238990666
100.325311102747
100.325353011947
100.325367983412
100.325485439011
100.32548742707
100.325552111815
100.32552450546
100.325576423661
100.325568237733
100.325600585312
100.32557843032
100.325518812519
100.325506968923
100.325428767273
100.326526818441
100.326588423889
100.32649700183
100.326523504129
100.326431416338
100.32524371572
100.324103876792
100.324088470477
100.324062728733
100.324028723381
100.324086531007
100.324122774623
100.324128008105
100.324210070125
100.324270653979
100.324303174503
100.324452033355
100.324487689564
100.324567313149
100.324572521933
100.32465299467
100.32466070108
100.324700677312
100.324679723543
100.324598036455
100.324549339139
100.324433892201
100.324412105865
100.324304659489
100.32425520613
100.323095659913
100.322885002285
100.322860869152
100.322826517771
100.322781159006
100.322869756847
100.322931367151
100.322954704534
100.323070432803
100.323157774818
100.323205885412
100.323406866342
100.323481029172
100.323585570887
100.323621198169
100.323747436754
100.32376764843
100.323845771237
100.323846771611
100.323770618865
100.323681297154
100.323451910581
100.323346917227
100.323196153328
100.321859520966
100.321672047085
100.321380686531
100.321367679061
100.321324498208
100.321236086215
100.321400732214
100.321503394767
100.321538760578
100.321721629101
100.321850566255
100.321885777269
100.322166097026
100.322304168261
100.322455083224
100.322552555425
100.322768130468
100.322785345155
100.322978217061
100.322974841845
100.322785492967
100.322661642465
100.322298950477
100.32208649547
100.320398328068
100.320078320603
100.319740823275
100.319252728187
100.319335641329
100.319311193671
100.319113643582
100.319463173199
100.31962959076
100.319647007629
100.319943551963
100.320113171818
100.320043816011
100.32049802405
100.320739653635
100.320958381695
100.321202443694
100.321654260814
100.321564741189
100.321950474573
100.321905475451
100.321453795161
100.321395137704
100.320783340347
100.318633015906
100.317696060539
100.317233578993
100.316762776561
100.315926861711
100.316190635315
100.31625450844
100.31585798415
100.316664835731
100.316933583691
100.31676637998
100.317347217537
100.317505896033
100.317236847351
100.317994481964
100.318256665773
100.318537123387
100.319267036572
100.320180757512
100.319759653402
100.320633323152
100.320545827998
100.31948839359
100.319758615776
100.318206383577
100.315512096601
100.311820816464
100.31198522437
100.311319316036
100.309585923822
100.310576464525
100.31068172222
100.309960331463
100.311777744096
100.312259467754
100.311516777138
100.312694162481
100.312770352127
100.311820860895
100.313364688516
100.313542759373
100.313114516263
100.316508648318
100.318675295755
100.317263575456
100.319102841541
100.318958399156
100.316815257637
100.31447131972
100.309171638401
100.303761266689
100.302085010643
100.304942643891
100.303978725489
100.300311886121
100.302515693687
100.302805894974
100.30156642673
100.304928905594
100.30589862381
100.304218825949
100.306327323305
100.306133901992
100.303903600553
100.307083265541
100.307469452858
100.303964786278
100.305054965798
100.310097708995
100.315055436824
100.310228017628
100.30893183621
100.308691803535
100.309741914561
100.323550410982
100.324677465884
100.322538658876
100.316093849556
100.31629092734
100.313889483106
100.310627374793
100.312508585341
100.313335814017
100.313279475119
100.315802911844
100.317323416049
100.31760171403
100.318748496119
100.318016182879
100.315835726177
100.318119196733
100.319520371314
100.318669066377
100.324130165421
100.325763923315
100.32380174072
100.329160644053
100.328897250301
100.368096237825
100.363994928015
100.359595960681
100.35788673138
100.351248748762
100.347266484891
100.34322987673
100.34569284365
100.3414503597
100.344323789772
100.346603651459
100.358310509016
100.380182637822
100.383881578391
100.364730664334
100.347783823383
100.34408726051
100.392597278078
100.429579795293
100.413408579376
100.419847124065
100.431595741587
100.417165237783
100.402728070615
100.35438440405
100.352039203853
100.34894703509
100.352884587158
100.348677692378
100.351034766017
100.354023803979
100.359530741074
100.360786784696
100.364179672606
100.368116117945
100.409785167703
100.41005076036
100.425701449499
100.413905696247
100.405271577257
100.400224792227
100.395798699762
100.402462691403
100.383046009248
100.378137196344
100.393417661088
100.382568496451
100.392402643806
100.397384284563
100.402962297872
100.415295011644
100.448192223862
100.448529949071
100.456430022496
100.468340400374
100.445540571856
100.445389925726
100.438885474738
100.403362313899
100.391757402448
100.411448656732
100.442552887622
100.46113094489
100.474082955032
100.478649791788
100.480370103067
100.482902275305
100.483902630467
100.483794142633
100.483373289401
100.483063143272
100.483052145541
100.4833302512
100.483746872298
100.484276908125
100.484831315528
100.484960601791
100.48491502333
100.485435666342
100.486301372874
100.487289183395
100.488395612922
100.490416918645
100.494129337063
100.502118512012
100.513274556076
100.532967670463
100.524447109844
100.476179866582
100.430344212195
100.382140635307
100.355601812704
100.372594118659
100.372940023204
100.370967732943
100.371007362173
100.371974030805
100.37302162229
100.374132857036
100.375457969717
100.376952771673
100.378426186302
100.379672116741
100.380550132934
100.380972138755
100.380485275132
100.37984816957
100.379027848282
100.378014724141
100.376799833209
100.375340277844
100.373657298904
100.371890634898
100.370187966002
100.368700741166
100.367482297452
100.366536431952
100.365787168637
100.365193780971
100.364748941824
100.364509597175
100.3645538732
100.365048285497
100.3662279816
100.368068209781
100.370011757362
100.3715233585
100.372104812345
100.372060900307
100.372105710931
100.372100401701
100.372114675709
100.372157428391
100.372165418738
100.372220387486
100.372384138135
100.372639985463
100.372844686905
100.372900545728
100.372976350359
100.372896274154
100.3726328379
100.372485632384
100.3723775604
100.372398441387
100.372604274314
100.372483369976
100.37225880452
100.372153752046
100.372104702225
100.372075000698
100.372070332437
100.37204820993
100.372037689973
100.372051301394
100.372032471265
100.371906972234
100.371973685979
100.372009425458
100.372008805073
100.372013971453
100.372035483856
100.372058532857
100.372073717838
100.372116254693
100.372328236004
100.372042554121
100.372107707002
100.372110382755
100.371953503813
100.371908488806
100.371974101931
100.371986847277
100.371955057645
100.371954505729
100.371945558322
100.371943238483
100.371892525668
100.371859481715
100.371596609644
100.370925600934
100.371567585478
100.371842550017
100.371855374671
100.371891775466
100.371881191094
100.371901566693
100.371890330761
100.371914045891
100.371850329166
100.371940147712
100.37203601017
100.372038462022
100.371880990797
100.371863795299
100.371825167085
100.371715485626
100.371585495895
100.371651032353
100.371571797324
100.37176111447
100.371832847651
100.371844347637
100.371831618865
100.371855166879
100.371812964322
100.371848523815
100.371827029492
100.371846211303
100.371807884583
100.371793398814
100.371518417522
100.370665251156
100.371486736099
100.371765254557
100.371770708351
100.371803371165
100.371780762493
100.371792325352
100.371795720249
100.371789248326
100.371764229626
100.371774982798
100.371711235748
100.371527969813
100.371541342473
100.371683706413
100.371569139924
100.371692368027
100.371593521384
100.371718380126
100.371712387579
100.371754814453
100.371775989944
100.37174098404
100.371770906892
100.371760983214
100.371753916676
100.371732793443
100.371713755225
100.371448921381
100.370594350387
100.371454576534
100.371701233469
100.371710206238
100.371724803166
100.371736862261
100.371719973454
100.371729174443
100.371696006928
100.371644315454
100.37167886861
100.371647284332
100.371607875515
100.371527773921
100.371269215436
100.371103109292
100.371046003619
100.371378088949
100.371254188424
100.371508082416
100.371601713698
100.371637227429
100.37167051274
100.371706238927
100.371698636714
100.371713412833
100.37169840764
100.371683994512
100.371676436249
100.371451785747
100.370555707827
100.371558350768
100.371659817771
100.371672265987
100.371670890844
100.37168767604
100.371662031824
100.371713060454
100.371696632409
100.371614902685
100.371616144194
100.371558342583
100.37141489681
100.371294175844
100.371526529108
100.371602508108
100.371646218145
100.371627532174
100.37157222398
100.37139802231
100.371214802333
100.37077007614
100.370345716597
100.370787311154
100.370839520761
100.371295254724
100.37117744576
100.371459993254
100.371609236701
100.371650441622
100.371705816603
100.371701611232
100.371653649468
100.371631641934
100.371687696238
100.371687599517
100.371636244071
100.371630019473
100.371570231884
100.371315340444
100.370222320579
100.368641665209
100.370568887757
100.371449080543
100.371553561003
100.37161449119
100.371625496371
100.371677201544
100.371659911964
100.371622483883
100.371744505885
100.371744403214
100.371640970153
100.37166474218
100.371622433806
100.371462642134
100.371317324609
100.371597469031
100.371688952942
100.371723663642
100.371724530142
100.371709424197
100.371576089543
100.371269883635
100.370899734375
100.371172050334
100.371501776881
100.371376815108
100.371684563987
100.371767488851
100.371779955716
100.371677508297
100.371759303824
100.371751301132
100.371592750737
100.371576973449
100.37164738302
100.371595125413
100.371595858021
100.371533809914
100.371465169308
100.370717084292
100.36899497985
100.371070434103
100.371537654289
100.371548684663
100.371575333438
100.371665391775
100.37165079707
100.371564333321
100.371541489083
100.371484649479
100.371295393288
100.370593311981
100.369035095753
100.367622737713
100.369794866294
100.370978262454
100.371372051645
100.371487570163
100.371539852551
100.371572031876
100.371605449722
100.371725257882
100.371756978857
100.371693016447
100.371788727421
100.37177694674
100.371667476037
100.371538489691
100.371761290423
100.371812321529
100.371790597815
100.371764425312
100.371804909901
100.371679721458
100.371409890901
100.370970509836
100.371488620558
100.37160030082
100.37180704902
100.371735946183
100.371839736066
100.371795185927
100.37165376741
100.371737748795
100.371748012348
100.371576213265
100.371561894638
100.371589645674
100.371613477027
100.37151376435
100.371477841103
100.371397142295
100.371164440869
100.370136747476
100.3685541079
100.370796146363
100.371357033712
100.371388866539
100.371455615631
100.371491267753
100.371579449772
100.371509927947
100.371522745514
100.371478866276
100.371727738903
100.371700001214
100.371740814618
100.371825149176
100.37176587255
100.371526092395
100.371014630159
100.371528705664
100.371608824157
100.371786190372
100.371755211099
100.371809133635
100.371732031961
100.371575575588
100.371649796381
100.371501272405
100.371483485395
100.37139717318
100.371413356268
100.371350487896
100.371285438113
100.371157695166
100.370526305607
100.368898488482
100.368035049509
100.370057079443
100.37099605156
100.371199519094
100.371267296977
100.371337305911
100.371314130285
100.371416629411
100.37139372552
100.371626180782
100.371600653914
100.37165426732
100.371751447139
100.371745431993
100.371487997841
100.371045001632
100.371482906616
100.371703981891
100.371668705615
100.371657656277
100.37169828372
100.371616147528
100.371485095425
100.371525666208
100.371414150795
100.371368196465
100.371290529129
100.371234100752
100.371252360452
100.371189081078
100.371134582073
100.370510940404
100.369550637243
100.371026732831
100.371149837813
100.371162607035
100.371155434545
100.371220473785
100.371269876599
100.371274250586
100.371494491896
100.371422355905
100.371393043603
100.371346879019
100.371488200209
100.371584007721
100.371609339548
100.371415167472
100.370898582131
100.371269132949
100.371445663277
100.371473831792
100.371411414732
100.371357651066
100.371422347281
100.371361834273
100.371152839377
100.370611022783
100.371081736484
100.371085262791
100.371319520068
100.371357269523
100.371371552386
100.371335630977
100.371274857515
100.371319661896
100.371370743372
100.37124087954
100.37122028317
100.371231772293
100.371210282628
100.371182160073
100.371150829284
100.37111800815
100.371065301543
100.371108471532
100.370116953052
100.369652128491
100.371015332996
100.37110700915
100.371102959038
100.371119716242
100.371157532706
100.371192968117
100.371217440912
100.371181930826
100.371196629684
100.371207010082
100.371314262946
100.371277637756
100.371274941718
100.371255344184
100.371281352564
100.371344270157
100.37131375014
100.371195753349
100.370679083513
100.371165853666
100.371301391392
100.371329569815
100.371264889497
100.371244251925
100.371343723819
100.371326845478
100.371240251281
100.370841819853
100.371236663696
100.371339472746
100.371382863664
100.371455120379
100.371361602683
100.37126068915
100.371266636435
100.371253622383
100.371282519896
100.371211035474
100.371202079264
100.371176258787
100.371200002922
100.371150874446
100.371134738066
100.371098721913
100.371024807516
100.371084526119
100.370158282195
100.369917481988
100.370961918692
100.371092527262
100.371082520389
100.371101828292
100.371160551271
100.371169665095
100.371189980834
100.371213734654
100.371189171851
100.371181844071
100.371160435305
100.371147354589
100.371107082354
100.370865010739
100.370956510833
100.371125014729
100.371127770111
100.371206137509
100.371202861652
100.371215189397
100.371237331999
100.371214424193
100.371285385963
100.37124272646
100.37128248315
100.371277509421
100.371272565612
100.371389914804
100.37148514772
100.371339596554
100.371348237416
100.371348858953
100.371235134346
100.371278464475
100.371408368398
100.371434073713
100.371394472412
100.371160927932
100.371319614364
100.371386462534
100.37137620508
100.371261924559
100.371296563543
100.371261576598
100.371243725379
100.371214616254
100.371263945368
100.371236325981
100.371247011346
100.371232593867
100.371238097453
100.371239145543
100.370855120036
100.371229846781
100.371251089221
100.37123909962
100.371306194799
100.371281720419
100.371278302435
100.371296758282
100.3712577848
100.37129398801
100.371304970011
100.371296236508
100.371407696749
100.371431557425
100.371422500361
100.371143945956
100.371324171264
100.371379932766
100.371367802848
100.371279410326
100.371303353386
100.371280194702
100.371286359328
100.371268446773
100.371311323105
100.371295421557
100.371323224165
100.371333752773
100.371369090164
100.371358555158
100.371017787462
100.37146026591
100.371344956735
100.371355045539
100.371380984286
100.371338986433
100.371323851525
100.37131257553
100.371308268972
100.371300470582
100.371340263262
100.37131771451
100.371399630949
100.371425903317
100.371454391578
100.371185681102
100.37137654894
100.37140345862
100.371390495374
100.371308972779
100.371324191474
100.371353675102
100.371335961517
100.371416792336
100.371442305446
100.37150846408
100.371288970122
100.371425711353
100.371437522714
100.371401608256
100.371313378484
100.371344857834
100.371332335219
100.371315890473
100.37133562208
100.371340265203
100.371349466861
100.37137381384
100.371390104033
100.371445390441
100.371448629926
100.371205159772
100.371407157727
100.371414093411
100.371443680949
100.371425359723
100.371401049174
100.371381856235
100.371363852054
100.371354826939
100.371358848415
100.371367849349
100.371341854432
100.371455321534
100.371521229855
100.37161599109
100.371446363486
100.371544271349
100.371509102043
100.371444549743
100.371333727801
100.37136487381
100.371400582702
100.371377747704
100.371507769064
100.371587810551
100.371695878847
100.371543689797
100.371614759741
100.371565787566
100.371509948739
100.371368842042
100.371398700664
100.371397760655
100.371371355299
100.371389065683
100.371404776284
100.371437101055
100.371441469471
100.371446223805
100.371482973877
100.371506123937
100.371457200533
100.371469520032
100.371556547087
100.371355842684
100.371470137058
100.370634649612
100.370969098103
100.369759769241
100.370419466189
100.368959989658
100.367507857559
100.368364332353
100.367069342139
100.368070626123
100.366910924053
100.366153349536
100.367030285377
100.366382108247
100.366039746005
100.367125004195
100.366937446915
100.366906870314
100.368526937268
100.368685778951
100.368886474593
100.369173417546
100.369542480811
100.371117250375
100.370831608008
100.371241177754
100.371595004008
100.371855837808
100.372282789086
100.372144022748
100.372207853652
100.372267294979
100.372316655871
100.372354017568
100.372417595311
100.372532476474
100.372808367984
100.373065992211
100.373296135511
100.373364388973
100.373368081152
100.373183409167
100.373071574048
100.372832745858
100.372513720198
100.372403760525
100.372465534104
100.372587856905
100.372873048287
100.37259373581
100.372423941987
100.372324991665
100.372092823119
100.37183634071
100.37147369557
100.371106413748
100.371229967261
100.371284763202
100.371137863659
100.370889291527
100.370990967
100.37110712631
100.371370908584
100.37154755726
100.371449803002
100.371489236515
100.371592705513
100.371546446728
100.3715974531
100.371592272863
100.371882784242
100.371809295158
100.371843116672
100.371881234692
100.371922323369
100.371994608081
100.37204188995
100.372173476664
100.372209868252
100.372261569794
100.372299942784
100.372354497625
100.372553155577
100.372846144037
100.37308443335
100.37317567154
100.373186713828
100.372965813955
100.372681031992
100.372278268495
100.372166604401
100.372215468207
100.372214145831
100.372302572876
100.372519850247
100.372669197995
100.372949411229
100.373204219752
100.373428522972
100.37351689977
100.373523080252
100.373378212356
100.373114617116
100.372820149568
100.372677583194
100.372215214036
100.371758760872
100.371291870974
100.371412712822
100.371576110757
100.37151509304
100.371392346538
100.371290033246
100.370504061829
100.37001459833
100.369888449556
100.369817500328
100.369629512818
100.369762672835
100.370168993911
100.370364866173
100.37041710855
100.370049017538
100.370427187595
100.370655881665
100.370738994296
100.370498083332
100.371568435853
100.371907842709
100.371920310863
100.371996845614
100.371998694696
100.37209728977
100.372116251001
100.372127123381
100.372147275055
100.372083926063
100.372155886696
100.372185027246
100.372262497148
100.372349744248
100.372397081044
100.372429990975
100.372530189577
100.372627759633
100.3727909775
100.373070811166
100.373351847897
100.373602491326
100.37367502125
100.3736745959
100.373544883702
100.373280304498
100.372969644465
100.372507388242
100.372048992046
100.371578668918
100.371427950711
100.370715526315
100.370366785909
100.3702221559
100.370112546018
100.369999664882
100.369766229045
100.36979592966
100.37018543738
100.370426339173
100.370464821821
100.370583511466
100.370235291775
100.370627806583
100.370878365228
100.370649081694
100.371291825967
100.371791184236
100.372079388539
100.372249378802
100.372232750039
100.37221712178
100.372325582861
100.372430956554
100.372488280219
100.372585054253
100.37262933974
100.372721726493
100.372875859398
100.373179883778
100.37347516359
100.373714360548
100.373794452072
100.37379673313
100.373660277749
100.373402395708
100.37307627507
100.372634469099
100.372178716526
100.371695753262
100.37103169639
100.370750650568
100.370587661679
100.370275080807
100.370055567112
100.369975710592
100.369785239397
100.369538517123
100.369783892029
100.370020939353
100.369725331365
100.369611355274
100.36938595711
100.369098830406
100.368834121563
100.368637367088
100.368499501172
100.3684224878
100.368701213101
100.368934678404
100.369126030402
100.369371814172
100.369563411286
100.36919768198
100.36928117824
100.369541665108
100.369612075262
100.370432718036
100.371004947531
100.371691863253
100.371982386067
100.372058354456
100.372209443196
100.372232657015
100.372412805483
100.372416516318
100.37231757578
100.372394098572
100.372515214715
100.37259879277
100.372671321164
100.372708831804
100.372815228024
100.372990637668
100.373315411815
100.373612383044
100.37384293738
100.373922256523
100.373922949322
100.373792035471
100.373531292628
100.373212810927
100.372759159592
100.372317365576
100.371853681687
100.371195473549
100.370928244223
100.370677282573
100.370496787507
100.370469283927
100.370202890962
100.370062395936
100.370343354868
100.370076147298
100.369823612762
100.369579071043
100.36924154482
100.368928634467
100.368459161662
100.36872528435
100.369133477696
100.36942974342
100.369576694021
100.36981557287
100.369808050337
100.369648359921
100.36891833617
100.369208950414
100.369337375147
100.369319682451
100.369509737413
100.369106250774
100.368630615838
100.368017725558
100.367411886966
100.366218110375
100.366121229945
100.366686455561
100.367323499754
100.367877060814
100.368438205519
100.368975247658
100.369852725163
100.367562026742
100.366939330783
100.366553960334
100.366390585766
100.366209829952
100.366135731993
100.365256321369
100.36411088583
100.361614214101
100.365086249112
100.366431251015
100.3655374399
100.364218527313
100.363024290431
100.361274321566
100.359782489778
100.360670581579
100.361674510032
100.363611777735
100.363575905724
100.36417288674
100.365203256067
100.366322287609
100.366963938265
100.36767779924
100.368272046463
100.368894486014
100.369415444574
100.369921196057
100.369498599241
100.370236693574
100.368375660824
100.372750211424
100.372786131555
100.372606919227
100.372374374487
100.37192517106
100.371146663169
100.369878848523
100.368425287504
100.367504795737
100.366206790909
100.367724621289
100.3676424611
100.365809825923
100.363053935613
100.361618798177
100.360771949931
100.353366273811
100.355542551222
100.356049284203
100.357301804508
100.359628002905
100.361285379928
100.365744703817
100.367944947075
100.370189208548
100.370248587242
100.370573731219
100.368827412594
100.369258400455
100.369691150442
100.370206884685
100.370504058686
100.370998492468
100.372151622528
100.372399639897
100.372519796802
100.372307442524
100.372467889676
100.37254865439
100.372687567038
100.372763088454
100.372797204599
100.372921307469
100.37308414464
100.373371028111
100.373667067787
100.373899989349
100.373988087015
100.373995059619
100.373875512285
100.373602031281
100.373301325868
100.372817776072
100.372380884134
100.371960799914
100.371328153226
100.371081368099
100.370832550177
100.370710573472
100.370674920413
100.370564156619
100.370804455241
100.370606040117
100.370641355789
100.370736664768
100.370859693769
100.370651146398
100.370472952875
100.370131028026
100.370265725151
100.370500940548
100.370383382108
100.370114890962
100.369747978285
100.370154450478
100.369765842256
100.369399402435
100.369048331502
100.368665220498
100.368239946738
100.367847044003
100.367192442907
100.367548911068
100.368053308837
100.368474156939
100.368739269783
100.369084332361
100.369439100544
100.369419559943
100.369200844863
100.368715022286
100.368249070663
100.368037770121
100.368447391951
100.368509872295
100.369969515849
100.370924061713
100.371266998421
100.371573509278
100.372548699776
100.372659094713
100.372605785434
100.372427228775
100.372627336695
100.372758341164
100.372828520604
100.372875145917
100.373015444724
100.373161817574
100.373401013423
100.373719580658
100.373953270934
100.374043068313
100.374047897808
100.373944660094
100.373681725509
100.37338513435
100.372918362158
100.372535029852
100.372082485997
100.371528972979
100.371264144068