/*--------------------------------*- C++ -*----------------------------------*\
| =========                 |                                                 |
| \\      /  F ield         | OpenFOAM: The Open Source CFD Toolbox           |
|  \\    /   O peration     | Version:  v1612+                                |
|   \\  /    A nd           | Web:      www.OpenFOAM.com                      |
|    \\/     M anipulation  |                                                 |
\*---------------------------------------------------------------------------*/
FoamFile
{
    version     2.0;
    format      ascii;
    class       volScalarField;
    location    "1.5";
    object      p;
}
// * * * * * * * * * * * * * * * * * * * * * * * * * * * * * * * * * * * * * //

dimensions      [0 2 -2 0 0 0 0];

internalField   nonuniform List<scalar> 
79506
(
100.122257468781
100.124342908079
100.12057548832
100.125118852796
100.13207421314
100.132314040433
100.130373608488
100.130980601822
100.131370034665
100.131543581748
100.131938312291
100.131560129387
100.133240285259
100.132679410588
100.1348077555
100.134833450622
100.132771791978
100.129891799695
100.126680288707
100.126299262781
100.126400912212
100.128162652321
100.125749452392
100.126945027406
100.128886839077
100.13372194457
100.128323972297
100.127311599967
100.126556082197
100.126201581841
100.126294743242
100.126359418037
100.127187830213
100.128146600709
100.133631608894
100.128646219916
100.126662303537
100.125405350747
100.127786197471
100.12599327375
100.125930155005
100.126318094178
100.129542362466
100.132464354315
100.134416061975
100.134290545787
100.127642752189
100.126449969611
100.123062191525
100.123569825427
100.124098340562
100.123938516265
100.124030893211
100.124038586898
100.121796769857
100.125024707313
100.128716143028
100.12723292363
100.123848648417
100.122906338179
100.121881471872
100.122727566178
100.122811030043
100.122148514557
100.123029006238
100.124036417457
100.127539562824
100.129012873953
100.125291659872
100.122077383115
100.124375830812
100.124398216447
100.124247743279
100.124371297278
100.12373965764
100.123236141255
100.126762440602
100.128011574693
100.125597470285
100.128914992397
100.132090434973
100.133887655581
100.131901639811
100.131341213432
100.132410960565
100.130559336872
100.128077508424
100.123886918201
100.129338734324
100.117754262208
100.10653911806
100.11271867613
100.114333556626
100.123594172751
100.117750830163
100.118897197891
100.12161897705
100.120936919044
100.120439318671
100.120467100658
100.120434383882
100.12501430726
100.125817518356
100.121285269596
100.121647214478
100.11911452419
100.117929137359
100.118823761829
100.118835957237
100.117961003644
100.119225583065
100.121860326916
100.121565452198
100.126101318522
100.125311361753
100.120719744398
100.120826794103
100.120813870239
100.12125620294
100.121916556885
100.119088387786
100.117870991713
100.124042647559
100.124520494225
100.1210744601
100.124922388937
100.13144266587
100.136658871634
100.130105067018
100.129571103539
100.134120669237
100.149585144893
100.118471353664
100.11898207
100.103951998839
100.077300292192
100.078155888698
100.073845103972
100.074553107198
100.080747201625
100.110976864747
100.121241867047
100.118345495414
100.118105724844
100.122255200048
100.128470721602
100.111750203983
100.112308487938
100.113727467619
100.123067415167
100.118120762791
100.118144988712
100.123186241267
100.113735355826
100.112441421908
100.111942208635
100.110529908749
100.111256257442
100.114785233581
100.112595473145
100.072678591245
100.074733782896
100.076029196893
100.07577951874
100.074704118962
100.074755170663
100.076654085464
100.077081294401
100.081193981172
100.110328746633
100.105476031031
100.089159758886
100.083380179381
100.083307511763
100.080619973426
100.081411167949
100.075917714765
100.076026243849
100.078170195737
100.081903297856
100.081813079725
100.078005690212
100.075868686947
100.081223745653
100.08044009445
100.074068913045
100.074676778488
100.081197360389
100.081654189606
100.08079364407
100.080488315094
100.081360816055
100.081228206307
100.08049468421
100.081726589438
100.081806973726
100.082281986462
100.082355966032
100.0817098332
100.076923565401
100.077733001104
100.077703312438
100.076889178202
100.075885492812
100.076835280668
100.076383231279
100.080312554451
100.081591903791
100.082222227465
100.082508927367
100.08181515532
100.081760885467
100.082476687425
100.082389475646
100.080255329636
100.080050381671
100.080138051603
100.080220444654
100.080287833721
100.080152193635
100.081978108754
100.081073220855
100.081061200266
100.081652539696
100.081204307901
100.080404433625
100.081619770909
100.079937878505
100.07984570521
100.08000400885
100.080105079596
100.079917560318
100.079967395981
100.080271944751
100.077839065257
100.0778525066
100.077798844777
100.077872873608
100.077854932087
100.077900787737
100.077832097261
100.077794384493
100.080112046193
100.081947792422
100.082277271095
100.082118549966
100.080048916695
100.077671823334
100.077656102127
100.077554477316
100.077600833351
100.077643901
100.077623008608
100.077690210216
100.075801960642
100.07592105984
100.075938130405
100.075884499479
100.075944271741
100.075926972705
100.075947646003
100.075876631816
100.075840443999
100.07584014019
100.077796823778
100.080173340892
100.080581143737
100.077976912229
100.075969309728
100.075743532755
100.07572204713
100.075659774442
100.075723788501
100.075763439605
100.075734329948
100.074029310544
100.074103524173
100.074207532231
100.074216219688
100.074160435506
100.074218132788
100.07420140058
100.07420766633
100.074137447804
100.074102527847
100.074100451105
100.074022674868
100.074006089387
100.073970994325
100.074026592157
100.074050661959
100.072305030469
100.072281338983
100.072355774963
100.072457120407
100.072443830295
100.072399074275
100.072469090151
100.072450917355
100.07245386732
100.072395944615
100.072363985826
100.072356014468
100.072287101865
100.07227688036
100.07225686464
100.072295769793
100.070525397424
100.070600313063
100.070460522147
100.070454623805
100.070639083908
100.07061672731
100.070577445951
100.070663853981
100.070649949095
100.070658633822
100.07061430003
100.070586690259
100.070571590544
100.070508439022
100.070498618489
100.070486790787
100.068682319287
100.06868119425
100.068792598801
100.06849367743
100.068378785212
100.068655781825
100.068723034702
100.06873987144
100.068846325061
100.068840318855
100.068856103029
100.068825535276
100.068801599763
100.068780333961
100.068723203672
100.068702851572
100.066892644041
100.066841248958
100.066778929049
100.066762232986
100.066966848385
100.066889179225
100.066679092451
100.066855169726
100.066923975954
100.067041805
100.067054373971
100.067079495634
100.067059698005
100.067032907308
100.066999486797
100.066933686222
100.065128907232
100.065051067518
100.064955997758
100.064872314594
100.064664365958
100.065130774705
100.065221172356
100.06486022329
100.065071851075
100.065144743268
100.065274344527
100.065310226932
100.065348762677
100.065336277597
100.065291219376
100.065226004356
100.063446711466
100.06328294715
100.063144339783
100.062978833275
100.062914951611
100.062665715544
100.062643564912
100.062869798146
100.063102313659
100.063284343834
100.063389390658
100.063559077392
100.063629436857
100.063690302723
100.063675270156
100.063585428249
100.061914866097
100.061620864539
100.061334810649
100.061096748867
100.060816713238
100.060738862028
100.060618993128
100.060419570473
100.060650541437
100.06111567239
100.061366926125
100.061631218309
100.061897723823
100.062018638068
100.062117508235
100.06209149276
100.060573768548
100.060235870196
100.059636186957
100.059160752734
100.058723979402
100.058270061468
100.05809898341
100.058050116781
100.057851063722
100.058126260343
100.058763736852
100.059234767516
100.059816993361
100.060230220854
100.060459311973
100.060606971586
100.059008062445
100.05897782869
100.058327428652
100.057258152362
100.056464602289
100.05565521792
100.054933917279
100.05463450593
100.054579941635
100.054134606048
100.054664477423
100.056030831419
100.056730318679
100.057678967538
100.058395659881
100.058847140599
100.056789195294
100.056893785996
100.057073902317
100.055828321134
100.053768586585
100.052541121851
100.05129479424
100.05012182059
100.049292508189
100.049360090043
100.048536356267
100.049441116332
100.052000608729
100.053001039468
100.054745452956
100.056096346499
100.051975314144
100.053056787752
100.05260565455
100.053769592578
100.051579197357
100.047126924161
100.045191482064
100.043645036987
100.041711517602
100.039708171498
100.04056806888
100.039367874238
100.040510406785
100.044716621779
100.046237309078
100.049534449502
100.041714314768
100.045536340632
100.04697295368
100.045097898353
100.04846478164
100.044737069988
100.035145862093
100.033014758518
100.031368901626
100.028910539939
100.024760281985
100.027103722068
100.025802801239
100.027538327939
100.033704308172
100.035112235508
100.060443991295
100.064195136397
100.069242138941
100.078982620341
100.071770477341
100.072706016195
100.066063493896
100.055393539539
100.055803991943
100.046804514542
100.043213436665
100.044731120375
100.03681714199
100.077738800415
100.102611981058
100.10579571795
100.085984452498
100.043577327841
100.040548762647
100.144566266797
100.232046955888
100.171447225431
100.175058150544
100.17028314542
100.159490588048
100.150567507646
100.19750387598
100.235150050567
100.144450437679
100.154071330906
100.217267942925
100.17239072752
100.173500583187
100.159099558519
100.149125193878
100.149165496741
100.138496333915
100.176917842853
100.117917597686
100.11365746236
100.168898917222
100.129925277254
100.145636738834
100.161018816083
100.254485515257
100.272731982697
100.275709808622
100.263149402055
100.273193289858
100.279534336532
100.292899621299
100.326565033931
100.340303046941
100.242894988967
100.280203919492
100.37330664679
100.319250002892
100.311348737067
100.303570344732
100.324143760258
100.267158621737
100.253542510657
100.300429154835
100.269567474093
100.269352194276
100.272220791654
100.290424258691
100.285934511504
100.260974368867
100.255915879467
100.258591082366
100.343151861254
100.387962325402
100.361679974568
100.36366183943
100.392943427434
100.375985350552
100.354368612537
100.445631775103
100.472033343459
100.447031687564
100.462941391364
100.464851035871
100.42671622035
100.379150877612
100.416344487971
100.368309576749
100.45627019432
100.478789060081
100.461256826063
100.471653559364
100.492891097873
100.458743411952
100.404560396713
100.425861446081
100.449474258691
100.415350883765
100.442388248382
100.445750208345
100.411025348655
100.44969744351
100.428090382082
100.354741414287
100.34374857646
100.412090432498
100.419873316022
100.372563421267
100.400757652373
100.395492738551
100.362822087891
100.394406371591
100.366393933443
100.359390702216
100.384350959898
100.358564883755
100.357572047691
100.415136262155
100.460033890991
100.444925015192
100.457993989269
100.484028181596
100.483137058038
100.459229563716
100.434450129547
100.434499843322
100.491758134414
100.508892194983
100.505890295985
100.505539284696
100.504862620097
100.495425853365
100.485791829511
100.513024492966
100.514406517795
100.513325978167
100.508599777541
100.503779663067
100.500497574669
100.491900978367
100.490413011031
100.493397729204
100.5000648353
100.487359385528
100.504246034365
100.50258202695
100.500524127002
100.499278421134
100.499857608968
100.499847638571
100.500641765652
100.500567014083
100.494782067999
100.478694761778
100.491129269907
100.492165972236
100.485628503092
100.486030435071
100.489363758222
100.489410356991
100.473902836558
100.459496603032
100.473640305672
100.464698114705
100.452379532513
100.447930592878
100.449230115197
100.456168172982
100.427935804252
100.423535231067
100.448333748455
100.436081930832
100.455216091419
100.486952198475
100.492180061775
100.495188517359
100.507309112807
100.513506985725
100.511914883779
100.515932878479
100.516674624475
100.512446406997
100.511546586038
100.511810479216
100.515318343638
100.513995305105
100.513707597907
100.513884465325
100.516558092132
100.511076073226
100.514604754637
100.514845750003
100.512481293122
100.514011888746
100.514810704477
100.509927467413
100.512757840884
100.512550516776
100.509265176776
100.503446531995
100.504032722794
100.502393783357
100.500420402224
100.496909803127
100.50588363107
100.504796681153
100.501776031752
100.500380146978
100.499244691008
100.499612171791
100.498107310857
100.497470560141
100.498501265414
100.497667415316
100.496699667968
100.497685963952
100.498847171684
100.499336117885
100.500254161908
100.500961425668
100.500274259632
100.50152570128
100.499212518854
100.501896727158
100.498699367931
100.499242713839
100.502537788024
100.501617854068
100.499748806349
100.503293469176
100.501034408251
100.502391932672
100.493001414613
100.48959810696
100.501668381406
100.500006576222
100.48696728435
100.491574274166
100.489929340508
100.481444368844
100.487554389881
100.485893495074
100.480151892162
100.492669842527
100.489667595135
100.490163485302
100.490957840852
100.488622922995
100.49866831116
100.504532287746
100.504724428146
100.510572450246
100.512188366232
100.511126147543
100.514826643009
100.514003591533
100.512789738193
100.513624536966
100.513964583026
100.513665135333
100.514017328697
100.514042328841
100.513461710755
100.512120059304
100.51265147559
100.51224082603
100.512758907284
100.511467746261
100.511692552371
100.51184978747
100.512761019712
100.511225462493
100.506002271761
100.508651088163
100.506275476674
100.506445725281
100.506338250706
100.505716533993
100.502311044213
100.503503414145
100.505552060686
100.507321291258
100.510885365005
100.508977119111
100.505586296554
100.502628178345
100.499856454729
100.498656600128
100.498748043904
100.49898805086
100.500336943323
100.503576512964
100.511194416944
100.523823909963
100.557083916714
100.565653290318
100.506566564749
100.463852870185
100.426125607078
100.382776288125
100.358054234558
100.374867575949
100.372295504474
100.370547364053
100.3709879932
100.371800916886
100.372586482337
100.373606019735
100.375015107193
100.37670491904
100.378446381371
100.380000982559
100.381169955947
100.381817806228
100.380698402457
100.379382288318
100.377929734306
100.376379588114
100.37480623434
100.373320206933
100.372012036517
100.370888851771
100.369916895603
100.369063636428
100.36828503159
100.367564582577
100.366934714797
100.366489714698
100.366360747254
100.366646078505
100.367378615049
100.368538999107
100.369943608782
100.371293903943
100.372209067922
100.372569089117
100.372559969275
100.372608004254
100.372605398589
100.372613015056
100.372626264812
100.372640309845
100.372601503525
100.372641273116
100.372627038247
100.372739843222
100.372851159143
100.372814295612
100.372734205336
100.372598671966
100.372568179103
100.372756151968
100.372610129244
100.372629516428
100.37264348042
100.372506681528
100.372418595081
100.372557157063
100.372446615575
100.372548033296
100.372540828449
100.372581639256
100.372506941826
100.372535444241
100.372548840105
100.372540555038
100.372532678576
100.372509641143
100.372533222206
100.372484425147
100.37238785976
100.372298954934
100.372159978946
100.372322630941
100.3724142493
100.372450134231
100.372485369299
100.372466182565
100.372463984617
100.372487951745
100.37252252373
100.372537374239
100.372562531084
100.372595853114
100.372628993489
100.372693402133
100.372698600848
100.372697866578
100.372647804711
100.372870837162
100.372935054191
100.372958879595
100.373023454737
100.373035734908
100.372952098773
100.372842158068
100.372772817332
100.372460178894
100.372001178492
100.371807359937
100.371964216969
100.372160501108
100.372506738166
100.3722470204
100.37202694388
100.371847474432
100.372057805794
100.372059255821
100.372337094476
100.372413080022
100.372302021255
100.372349988359
100.372347859447
100.372456034452
100.372414249445
100.372479387732
100.372550826394
100.372496132227
100.372484502084
100.372524244906
100.372553136099
100.372671050736
100.372669374793
100.372733368807
100.372756256139
100.372746324288
100.372779074326
100.372807608374
100.373023953069
100.373100458041
100.373217689755
100.373307366328
100.373239098534
100.373381940183
100.372952053901
100.372830889646
100.372555610338
100.372575215539
100.372859697643
100.372891025963
100.373128340843
100.373281895226
100.373485797272
100.373531340476
100.373564052273
100.373430250584
100.373190567933
100.373061898498
100.373138012719
100.373218801774
100.373320331347
100.37319086951
100.373070251181
100.372814236179
100.372453422328
100.372331522933
100.37263301674
100.372618512202
100.372792677931
100.37280400355
100.372862388855
100.372933935713
100.373003292572
100.373320531287
100.373508974543
100.373691981996
100.373743620777
100.373781527812
100.373555879668
100.373288234583
100.372828940281
100.372289800697
100.371759187582
100.371999207088
100.372199014929
100.372228257232
100.372067968985
100.371331480065
100.370685719834
100.370033479061
100.370305288747
100.370650605797
100.37052644364
100.370420036159
100.370688247677
100.370998691222
100.371145324775
100.371214283227
100.37094475022
100.371249988098
100.370880806904
100.371547072093
100.372401281301
100.372748902824
100.372642747434
100.372661686132
100.372659079893
100.372695833868
100.372733269866
100.372780204481
100.372772287893
100.372821585998
100.372855803524
100.372901185298
100.372880805617
100.372998584588
100.373133640852
100.373478917975
100.373682047301
100.373851460693
100.373845496865
100.373830924951
100.373649026065
100.373349022147
100.372917396148
100.372364500948
100.371719463547
100.370894094131
100.370462189458
100.370364009087
100.37023143729
100.370149841508
100.369313500334
100.368945839262
100.368804769666
100.368671664745
100.368665424881
100.369142723134
100.369208526408
100.36868595145
100.369045795769
100.369568902887
100.369632274565
100.369729105278
100.370944760475
100.371633475237
100.37232120304
100.372763115852
100.372766150624
100.372745067973
100.37273202161
100.372764316507
100.372807069782
100.37284103054
100.372882160858
100.372926461668
100.372921402433
100.372886431812
100.373056067822
100.373275075158
100.373622852357
100.373848858921
100.374049187865
100.374007154343
100.374001792059
100.374032040219
100.374163493928
100.373979070908
100.373739421714
100.373334454227
100.372931784383
100.373026853333
100.373453133083
100.373774321089
100.37400599771
100.374217292769
100.37417501829
100.37405894087
100.373761473967
100.373429253263
100.373420312688
100.372988020298
100.372449353318
100.371800114435
100.370977112733
100.37058489131
100.370163587038
100.369927501353
100.369859778138
100.36960181607
100.369337354545
100.369062536857
100.369384525233
100.369720520245
100.36999806435
100.369762693604
100.369423265265
100.369185338602
100.36872484423
100.368755327502
100.368953104551
100.368693563537
100.368127265406
100.368379781598
100.368471753243
100.36803838504
100.368072719887
100.367552181919
100.367149435858
100.366799215445
100.366613071654
100.367107260952
100.367467908536
100.367764499485
100.367285812177
100.367428321293
100.367671754894
100.367469832712
100.368230267988
100.366663705008
100.365181952299
100.364170274112
100.364161225225
100.364732477398
100.365646693853
100.367688219288
100.365447260028
100.364538164011
100.363735309749
100.360183041616
100.357522101992
100.362036771112
100.36127722225
100.361335962663
100.359134769514
100.360806321663
100.357729435561
100.35964072209
100.361207415309
100.361321980926
100.362367387541
100.363873793687
100.364931765025
100.366132967706
100.367014573151
100.366515554795
100.368443600464
100.365732185843
100.372654222878
100.371604662064
100.370202899169
100.368498812124
100.366787924899
100.365847973685
100.368347087483
100.369920879638
100.365374839117
100.362871938428
100.362166101339
100.352409694876
100.355591709633
100.35300400655
100.356324592646
100.357811865906
100.367964303749
100.369888475767
100.371710178877
100.371951034084
100.372189027619
100.372239230962
100.372258376926
100.372272304485
100.372267380444
100.372288725297
100.372323295796
100.372266451583
100.372388116482
100.372348384402
100.372269822063
100.372186150857
100.372160868412
100.37228699883
100.372200666337
100.372313014063
100.372320548806
100.372200057666
100.372270074889
100.372273681445
100.372258741476
100.372252657254
100.372245461996
100.372210053373
100.37211002711
100.372128157457
100.371566369433
100.370654638936
100.371808832817
100.372160541628
100.372131918378
100.372200847457
100.372191040126
100.372203616284
100.372194528748
100.372213592322
100.372203556721
100.372177499883
100.372220588776
100.372134501152
100.37217842993
100.372255637835
100.372276687731
100.372232480593
100.372148684506
100.372176785419
100.371756864663
100.371648428473
100.371877834634
100.371796045471
100.372059293247
100.371942006703
100.372069120887
100.372158831948
100.372128218981
100.372165610489
100.372212541874
100.372241498735
100.372219529364
100.372164493289
100.372211430819
100.372186184986
100.372177344738
100.372111732032
100.372123181424
100.371836445986
100.370804890808
100.37203073339
100.372121369026
100.372142544481
100.372184244869
100.372186603722
100.372199685038
100.372215143165
100.372180639284
100.372163765225
100.372142775698
100.372156555907
100.372020200428
100.371815405638
100.371457283499
100.37100562549
100.371552658927
100.37145547552
100.371973661961
100.371736493624
100.372032118687
100.372151457607
100.372164983454
100.37218372129
100.372257053218
100.372192079506
100.37215548559
100.372166604939
100.372161773009
100.372147190653
100.372114191346
100.372063691002
100.371896472048
100.370558058944
100.368825159584
100.370989478762
100.372027081652
100.372081468109
100.372134174338
100.372177001181
100.372183365389
100.372168734623
100.37223675398
100.372265813091
100.372201572916
100.372165049176
100.3721353457
100.372004680771
100.371772152203
100.372116473587
100.372171386286
100.372202518361
100.372219583233
100.372150946436
100.371969318322
100.371806410308
100.371219393295
100.371946822768
100.37182093338
100.372127138217
100.372067219601
100.372201237593
100.372252546677
100.37226051114
100.372193388802
100.372285427518
100.372174550521
100.37221514935
100.372166274019
100.372165056517
100.372107210339
100.372100789989
100.371185094145
100.369274083448
100.371674651193
100.372242788747
100.372195657164
100.372205581946
100.372277021352
100.372168184301
100.372323141614
100.372345868254
100.37221748489
100.372276010114
100.372223900597
100.372229982406
100.372214574761
100.371996432006
100.371164202857
100.369455144177
100.368249527871
100.370430897185
100.371668135098
100.372161564762
100.372288400856
100.372269327789
100.372363359533
100.372228276188
100.372416290271
100.372254940923
100.372329634291
100.372263398539
100.372111690966
100.371935078552
100.37137637661
100.370785836056
100.37144858526
100.371978820916
100.372040253074
100.372312443999
100.372248214023
100.372359797667
100.372416317732
100.372398218603
100.37250957259
100.372313951822
100.372401249742
100.372302635503
100.372339730582
100.372301009307
100.371995965943
100.370853990233
100.369362679359
100.371739093534
100.372366735301
100.372448883227
100.37240961034
100.372539026874
100.372338134621
100.372610512501
100.372420083257
100.372531360481
100.372500271056
100.372374491638
100.372142796063
100.37164755252
100.372164620073
100.37227095758
100.372489766427
100.372460504905
100.372569193065
100.372597881732
100.372557594904
100.372665841607
100.372451731737
100.372542078714
100.372465990056
100.372502104744
100.372443935991
100.372254296082
100.371585502822
100.369911949731
100.36907797078
100.371358364064
100.372208945884
100.372445843152
100.372553880363
100.372563303216
100.372628070551
100.372495883247
100.372711557284
100.372532354672
100.372670113171
100.372643580481
100.372515912086
100.372311918839
100.371706271412
100.372264791359
100.372360366806
100.372561989588
100.37256475761
100.372706627659
100.372610170301
100.37272631847
100.37274991578
100.372721878066
100.372627764298
100.372603016344
100.37261134586
100.372687217138
100.372594451169
100.372592470506
100.372440119893
100.372089504958
100.371312032625
100.36970342988
100.369317527663
100.371249067958
100.372125537127
100.372456397582
100.372609116207
100.372669351082
100.372642395039
100.372706581952
100.372645982943
100.372825339956
100.37272120683
100.372781513763
100.372778957894
100.372673317531
100.372430004138
100.371922917519
100.372371457373
100.372679184272
100.372776522638
100.372791021338
100.372858516868
100.372839864084
100.372746423156
100.372553095549
100.37201093457
100.372409630691
100.372556535996
100.372665418254
100.372765962475
100.372865448014
100.372747076315
100.372856826081
100.372722532692
100.372799855974
100.37288626802
100.372661518773
100.372732383475
100.372796456491
100.372716097348
100.372728620927
100.372700735124
100.372555177095
100.371855983553
100.371156760147
100.372647038315
100.372826378494
100.37280103674
100.372783836187
100.372850860317
100.372774580595
100.372794299716
100.372867289169
100.372874466037
100.37287108855
100.372875393609
100.37278044631
100.372475785166
100.372648565861
100.372822710204
100.372833439177
100.372858229457
100.372877127752
100.372944187712
100.372802948791
100.372866156326
100.372838437138
100.372864678137
100.372870650962
100.372863883644
100.372892499378
100.371894554833
100.371792557442
100.372933511783
100.372939963416
100.372913878436
100.372919741617
100.372897324882
100.372907558582
100.372854836919
100.372948516986
100.372854033228
100.372885742238
100.372875525181
100.372738281814
100.372471784139
100.372004207067
100.372435537657
100.372693139568
100.37282570713
100.372841235892
100.372898834983
100.372862738953
100.372720050751
100.37252925568
100.372031067581
100.372443488644
100.372703991602
100.372839756734
100.372864467726
100.372876609816
100.372941798964
100.372967271092
100.372882362441
100.372932213302
100.372937192228
100.372946706821
100.372962293484
100.372990291969
100.37293153031
100.373145610685
100.372360457823
100.372679943361
100.373180531237
100.373067530504
100.373031624076
100.373014656103
100.372995165567
100.372973697006
100.372950728259
100.373011897841
100.372914404051
100.372929908559
100.372913495722
100.372801579006
100.372639998883
100.37216549232
100.372525534064
100.372762573335
100.372864334788
100.372905215745
100.372915136882
100.372858832865
100.372802122155
100.372784973229
100.37246540335
100.37209285773
100.372581110674
100.372833270375
100.372892971018
100.372904532072
100.372984563591
100.372965015728
100.37291187155
100.372956095168
100.372968799195
100.373022921807
100.373009458217
100.372949093838
100.37300975609
100.373022253352
100.373076393804
100.373050255481
100.373114694126
100.373003787788
100.373263305122
100.372728224981
100.373254138148
100.373228341234
100.373225614747
100.373184406273
100.373157121915
100.373158577371
100.373079969758
100.37303709496
100.373023010695
100.373049143533
100.372958678472
100.373012482474
100.373113024461
100.373184433827
100.37307130346
100.373027622559
100.373130850297
100.373211980522
100.373140746398
100.37317253231
100.37317466196
100.373307996133
100.373470723542
100.373479587172
100.373538229326
100.373407707364
100.373161995555
100.373128278536
100.373255002282
100.373137544017
100.373167680578
100.37310978519
100.373154674109
100.373238535046
100.373213803105
100.373293404849
100.37326211325
100.37339917017
100.373231594384
100.37355085115
100.373043513965
100.371320376524
100.37192994412
100.370258444129
100.370876268947
100.369412306996
100.370058582753
100.36865472206
100.367791719959
100.36812441618
100.367388014332
100.367973662606
100.367308178804
100.366950288167
100.367655168685
100.36734380315
100.367218612855
100.368631463261
100.368731640913
100.368911766632
100.370589261067
100.370764735521
100.37195403398
100.372225704098
100.372317060811
100.372336743713
100.372377675455
100.372364979631
100.372392490448
100.372398364212
100.372419184978
100.372368107782
100.372441377013
100.372361019523
100.37238295721
100.372439655308
100.372437723715
100.372379854881
100.372301672594
100.372420902642
100.372350878433
100.372378488377
100.372109391415
100.371989285421
100.372191983478
100.372029404977
100.371682776959
100.371319637451
100.37129673667
100.371561857106
100.371601625847
100.372083040138
100.371942019302
100.371682782463
100.371211074056
100.370595523775
100.369937846905
100.370432417039
100.37064934107
100.370519361693
100.371033702643
100.3710819169
100.371180626353
100.370944618372
100.371187498412
100.371625051686
100.37177349406
100.372046622336
100.372094889347
100.372252636984
100.37226267782
100.372196081768
100.372206263744
100.372232907253
100.37225740477
100.372283967401
100.372281130747
100.372285942743
100.372314915076
100.37230502442
100.37233133542
100.372343858413
100.372386102406
100.372433779601
100.372440132113
100.372452796208
100.372475881662
100.372457628913
100.372544148874
100.372512805417
100.372432182545
100.372519004113
100.37238074721
100.37240325737
100.372393701687
100.372386311228
100.372340553982
100.372319703964
100.372616943615
100.372599498446
100.372581018842
100.372612112946
100.372647239477
100.372688591371
100.372729768707
100.3728792461
100.372926895626
100.372981872874
100.37302600017
100.373130606154
100.373199217815
100.373370903074
100.373683371405
100.373945943381
100.374177446379
100.374360535674
100.374296055481
100.374184384282
100.373893792553
100.373493660092
100.373132568612
100.37331427565
100.372908650084
100.37247609704
100.371883300793
100.371062183581
100.370704440159
100.370300331932
100.370096489681
100.370060980812
100.36991500756
100.370273241815
100.370016228278
100.369649698667
100.369289453821
100.36914779209
100.369755632926