/*--------------------------------*- C++ -*----------------------------------*\
| =========                 |                                                 |
| \\      /  F ield         | OpenFOAM: The Open Source CFD Toolbox           |
|  \\    /   O peration     | Version:  v1612+                                |
|   \\  /    A nd           | Web:      www.OpenFOAM.com                      |
|    \\/     M anipulation  |                                                 |
\*---------------------------------------------------------------------------*/
FoamFile
{
    version     2.0;
    format      ascii;
    class       volScalarField;
    location    "2";
    object      p;
}
// * * * * * * * * * * * * * * * * * * * * * * * * * * * * * * * * * * * * * //

dimensions      [0 2 -2 0 0 0 0];

internalField   nonuniform List<scalar> 
87341
(
100.103436267812
100.105448500148
100.101842591539
100.106354399527
100.113371128801
100.113607258492
100.111642478547
100.112243044152
100.112450600852
100.112773720234
100.11294276035
100.112674499782
100.114455109208
100.114000887017
100.116233819371
100.116282721383
100.113794293469
100.110354221742
100.107849596336
100.107515763691
100.107386879521
100.108815480362
100.106620964186
100.108367978166
100.110682577871
100.114834028307
100.109453022499
100.108409507775
100.107652031218
100.10745371683
100.107332083214
100.107754569803
100.108344987143
100.109338919451
100.114582279494
100.110523613777
100.108149065059
100.106327589516
100.108459723176
100.107003823158
100.107188915126
100.107528771265
100.110059151668
100.113491322759
100.115844394876
100.115692744669
100.108942204172
100.108017514141
100.105157496124
100.105260170445
100.105595350397
100.105441451249
100.105381187806
100.105176224138
100.102821363473
100.106223880618
100.10966412109
100.108118944767
100.104855642357
100.10383648905
100.103126045935
100.103806565303
100.103751732205
100.102979383993
100.103896108082
100.104928698787
100.108267969666
100.109874721617
100.106474224076
100.103065837386
100.10550370048
100.105717941627
100.105718719109
100.105852926362
100.105412820046
100.105311010579
100.108321405361
100.109348371101
100.106935237969
100.110131073432
100.113212276636
100.114730745034
100.112587241113
100.112349824283
100.113567605962
100.111728081085
100.109259298548
100.105004132356
100.110467212701
100.098948155488
100.087749496134
100.093757029264
100.094967109576
100.105085831275
100.099919530189
100.10096758226
100.103560910257
100.102541359696
100.102018932136
100.102161367159
100.101462440905
100.105831019396
100.106404759657
100.102243574163
100.102664116235
100.099885188525
100.098741046977
100.099733549044
100.099751964465
100.098811755198
100.099934471078
100.102680092682
100.102383636148
100.106572323826
100.1061114204
100.101632309168
100.102533739355
100.102363733483
100.102826373975
100.10384213858
100.101139186575
100.100004920271
100.105532129359
100.105834217112
100.102495496383
100.106204087449
100.112599961181
100.117589544958
100.110541211994
100.110363574475
100.115180630192
100.13052035744
100.099990574301
100.100557185368
100.085172374015
100.058349279931
100.059240142065
100.054977731355
100.055472021552
100.061620244843
100.091859458411
100.103252726491
100.10004126337
100.099726361525
100.10439752105
100.111037566945
100.093060075024
100.093649248281
100.094980496935
100.103898727704
100.099102285557
100.099100037939
100.103867323456
100.095021859558
100.093720403002
100.093183434543
100.091640217282
100.092123777029
100.095425044523
100.093675588982
100.053780603535
100.055855896362
100.057089330554
100.056859578484
100.055902825626
100.05594466598
100.058076221133
100.058467889818
100.062122259914
100.091470545238
100.086619744924
100.070275672994
100.064559860946
100.064403163751
100.061517823011
100.062468061096
100.05693347977
100.057105381016
100.059459353405
100.063170118776
100.063179258725
100.059473867673
100.057098200095
100.062256264874
100.06135354378
100.055035774054
100.055913169828
100.062308571235
100.06273735959
100.061864096467
100.061553382051
100.062471955148
100.06232490973
100.061452948428
100.062561004527
100.062643206536
100.06332190557
100.06346684727
100.062827787025
100.058107671305
100.058909554548
100.058900256523
100.058154327508
100.057090192241
100.058214675038
100.057834519361
100.061304745836
100.062452044755
100.063215533197
100.063526931268
100.062855013964
100.062784588952
100.063475356179
100.063364631567
100.061228209114
100.060984862104
100.061097583648
100.061280193002
100.061369773908
100.061243793613
100.063045122533
100.062161440996
100.062142009443
100.062734524276
100.062217775441
100.061295928589
100.062444312622
100.06089630872
100.0607912491
100.060993858993
100.061097713775
100.060911348925
100.060954274777
100.061221692066
100.058798332317
100.058858441861
100.058787660277
100.058896077133
100.058960552444
100.059037428636
100.058994639787
100.058958309452
100.061204667424
100.063003461674
100.063307007324
100.063103274919
100.061074430391
100.058742833124
100.0586651513
100.05855580425
100.058604141309
100.05863335074
100.058599183338
100.058666928704
100.056690747801
100.056865495873
100.056914827698
100.056807922752
100.056918507201
100.057056140926
100.057174265781
100.0571283991
100.057082191041
100.057031471477
100.058922012638
100.061247633686
100.061660192621
100.059143201821
100.057303379135
100.056809620481
100.056654631196
100.056578033268
100.056706393683
100.056739500686
100.056638238012
100.054627940746
100.054631277562
100.05500821376
100.055038296346
100.054832764633
100.054965050814
100.055308631882
100.055534800473
100.05543769787
100.055382292656
100.055352265228
100.055024635388
100.054658317055
100.054607204191
100.054890874327
100.054930245618
100.052585516288
100.051986366411
100.051929525952
100.052625823377
100.052756101456
100.052353787363
100.052495396814
100.053144228045
100.053557963787
100.053405511218
100.053331865735
100.05330216292
100.052799285522
100.052109314836
100.052099724932
100.052608470801
100.050159230575
100.050043750804
100.048715655358
100.048474555053
100.049963891366
100.050361379341
100.05027181033
100.050513636162
100.050988234292
100.05172180753
100.051188914035
100.051085408733
100.051337485904
100.05051023187
100.050008777992
100.049907435941
100.045081224404
100.039661549429
100.038693418667
100.041533002611
100.041730982577
100.040043717594
100.040575233741
100.045764959458
100.04695446758
100.043746738898
100.046407548211
100.047554105004
100.047370835209
100.045955418015
100.043023188599
100.046238460384
100.067421588455
100.06707111014
100.068535916728
100.071200367103
100.078963100523
100.06901156224
100.068935021647
100.078413423764
100.076195091497
100.069079057408
100.075925448617
100.088035110483
100.08638697184
100.075227690536
100.066538928026
100.065373656884
100.062657286885
100.067443928744
100.069866928411
100.075148594707
100.06904634272
100.061867963279
100.061361242205
100.058408701412
100.053137299926
100.052088693349
100.056109256004
100.059241479386
100.060095418823
100.063638982152
100.077156182883
100.070703769416
100.074892429936
100.068335882023
100.069879033533
100.064144083647
100.07543515167
100.073933128383
100.072717470359
100.077816117929
100.09767135569
100.134389157027
100.177801474844
100.228265578154
100.278649806032
100.3323807347
100.374424045544
100.406311595168
100.441353136635
100.465991067532
100.474811504129
100.487029401319
100.458697866738
100.461804008113
100.463343243075
100.463274550738
100.464122450203
100.462700389309
100.459144058497
100.466323592212
100.465390488387
100.46612734411
100.467848139947
100.467300684251
100.469114221947
100.468286466785
100.463854070668
100.438231193129
100.45012985285
100.464285652629
100.458169782039
100.448823176068
100.436840241295
100.434729987967
100.441936198402
100.43590884493
100.409779120729
100.418302234268
100.430544725002
100.432337229694
100.420506726216
100.419176393276
100.4307574283
100.440121801794
100.436706526599
100.451519642437
100.403127317814
100.411163109083
100.41426845388
100.41358530784
100.410021325113
100.403077594009
100.405419750712
100.404728087578
100.397851053733
100.390616113449
100.39800862816
100.404732205192
100.405212464984
100.398613993236
100.391129937483
100.397050193019
100.404983167657
100.405755607521
100.455251453573
100.451096508706
100.39342015792
100.395050129578
100.391264538437
100.393417364738
100.395652205064
100.391916627913
100.389165769945
100.394033261793
100.391632204268
100.388136451445
100.393839502869
100.392744962343
100.394952878149
100.391532473525
100.388544823443
100.396787306664
100.421776983729
100.449939428543
100.458401928685
100.468209764206
100.465276831318
100.466842612473
100.469740199655
100.473750593688
100.475711715606
100.480005752583
100.475687809082
100.479583211574
100.482358875446
100.483409694278
100.478295727203
100.493404687609
100.476413405205
100.462075921101
100.459306272465
100.471278778884
100.465155064989
100.459797682711
100.45644336426
100.4471676351
100.439089614654
100.456386261305
100.473341937739
100.476694074672
100.471051682689
100.433907919567
100.431067397261
100.428820417666
100.424280982679
100.420070497839
100.424206407891
100.420627873001
100.409480795371
100.417837663708
100.424334409787
100.416032422771
100.418948570824
100.418814513554
100.417851229272
100.413891464735
100.413685760074
100.417024704551
100.414818948843
100.419775018797
100.410988343225
100.406409297071
100.418257708307
100.425289493255
100.436966091948
100.445754444996
100.446619345581
100.439733853085
100.430643520214
100.429950038962
100.463907850319
100.494362351646
100.477570161578
100.499019587346
100.514586496615
100.476252160933
100.455231484533
100.455039128044
100.473143039481
100.470872577116
100.476880476461
100.511695634087
100.502365033749
100.495800464423
100.47705767393
100.482287771397
100.474506321769
100.474150567285
100.478583876918
100.474957499761
100.493875628721
100.476999184472
100.480515398089
100.477730137325
100.477894379579
100.480187708563
100.487978056804
100.496825158694
100.49835612955
100.482266650428
100.477150887351
100.47843260887
100.489542214049
100.488659612064
100.460317067491
100.428690310342
100.422106971078
100.429236315736
100.431506950542
100.428298100797
100.417416428996
100.408264784588
100.398955917847
100.415747408034
100.400050145863
100.393273989237
100.401510069637
100.399596512858
100.409227827885
100.40645300504
100.390200079472
100.381683863049
100.403182430531
100.415950545642
100.412377098499
100.40942969689
100.400720622221
100.445648350648
100.45421918106
100.453981868168
100.409408944478
100.417460051616
100.424051164867
100.421617909585
100.417329602778
100.417087941652
100.433342448181
100.452704443738
100.46546335638
100.459149623929
100.413416538422
100.416651232423
100.403958148789
100.412577444906
100.418304087111
100.415104779175
100.404186881932
100.399187598685
100.392563537222
100.400684824336
100.41664608088
100.407439477012
100.425387763047
100.455652281728
100.488330301025
100.485412940502
100.474315631768
100.476019864147
100.47266673461
100.48356485755
100.487244303021
100.47361004472
100.47464607111
100.468004793321
100.493027834327
100.489203540367
100.48954693277
100.486040742372
100.472103460108
100.472813090882
100.485516190392
100.4831643885
100.476837107732
100.476138263142
100.476519333528
100.473628495311
100.481867077779
100.465465670645
100.468086479161
100.446265410075
100.434218248204
100.433491875211
100.436859195141
100.449124359562
100.432112441841
100.433725115965
100.430609475053
100.425788249564
100.423090342016
100.427437017942
100.460224590004
100.462954416075
100.462831623477
100.465479811855
100.460773756485
100.463366160976
100.463241369613
100.465565607958
100.464403217859
100.466939163103
100.467367199029
100.468907323132
100.469437861298
100.469215330996
100.469230405852
100.469169260667
100.469579781699
100.471301440392
100.471076638137
100.471767901357
100.471393490059
100.471167013403
100.472460943792
100.473764876961
100.471173368493
100.469475179747
100.470863767159
100.469682610739
100.469899878573
100.469553766822
100.469554228157
100.469549783712
100.469296791585
100.469245573243
100.468867604432
100.469005768626
100.46853688863
100.46783379357
100.467733638012
100.466928385495
100.46666363012
100.465636368582
100.464807271578
100.464630924791
100.463312878438
100.464561864027
100.46339383296
100.464983615167
100.463414880682
100.464625987646
100.462765475145
100.463621713652
100.462885249721
100.465130539964
100.467731362154
100.468760247635
100.469833685799
100.470259055677
100.472103145009
100.471839742655
100.471622399213
100.472143686489
100.472338904262
100.47257776929
100.473164952573
100.472819316406
100.473537130931
100.473815184073
100.474079213486
100.474334226634
100.47445243024
100.473576766833
100.473305269673
100.472803153366
100.472018792894
100.469570734203
100.470605461338
100.468918016013
100.467702915241
100.466830910682
100.465022284523
100.464301841565
100.46539927419
100.466580662073
100.469403092031
100.470898544721
100.46984177877
100.469011761967
100.467209799459
100.466569788373
100.466418663174
100.464794498928
100.463532041508
100.463446994483
100.465583443196
100.465308128478
100.468135773882
100.469569962155
100.471326504728
100.471856462551
100.471536914392
100.470197054345
100.472042583657
100.473706859576
100.473922501466
100.474642153001
100.475671350305
100.475143221396
100.475198983246
100.475108610847
100.474694537053
100.474780764156
100.474406814156
100.473643288792
100.473534350332
100.473199226041
100.472998497385
100.4727391446
100.472122579108
100.472940302672
100.472658867976
100.472550205527
100.473410938536
100.473313256366
100.473687270586
100.473964525465
100.473378945261
100.474408807783
100.473321170755
100.474122410895
100.472425951924
100.473552486177
100.473319374084
100.473105952111
100.47345797365
100.473056613475
100.471665459346
100.470060667627
100.467231585453
100.465236146413
100.463001352896
100.4594181776
100.455532969153
100.456788164814
100.455723748617
100.453318725791
100.46350776518
100.464511790683
100.467078337704
100.470464144556
100.470021763372
100.472741422362
100.474462300912
100.475242272733
100.473616091945
100.475582958497
100.476356176212
100.474493285126
100.475946273195
100.476402393407
100.474986797036
100.476502669394
100.475427340465
100.475102921269
100.475289517179
100.473775225709
100.472939317297
100.473943861465
100.473571606592
100.472886256285
100.472717223606
100.474221896913
100.473242623571
100.472721882002
100.472064549658
100.472150108111
100.470318615752
100.467514789791
100.469443038691
100.464097262583
100.46073407893
100.461744881602
100.461361889672
100.463626183413
100.464211025703
100.464970994762
100.465159465663
100.463655170946
100.464345994957
100.464915352155
100.463721138921
100.464341473935
100.461984126423
100.462506575213
100.459793989765
100.462273212182
100.459507828512
100.461385703521
100.459376276042
100.463185896612
100.466175748799
100.464521281135
100.468321436814
100.471764527405
100.471784838881
100.472050897726
100.472167769504
100.470697827883
100.468019720413
100.469715254546
100.470621127347
100.467355905189
100.463773350758
100.464219814743
100.45993652273
100.463907584373
100.460805867926
100.462876095649
100.462797340754
100.46440699156
100.465580196909
100.465443793934
100.46693161739
100.467676363506
100.468425748343
100.468735586594
100.468959151278
100.469018993868
100.469156520877
100.469535781409
100.469641657493
100.469750955819
100.469804808729
100.470163643894
100.470287527198
100.470494677776
100.470319688322
100.470136495342
100.470085289523
100.469707983342
100.469532471538
100.469165550952
100.469089592079
100.468631615125
100.467924577341
100.467691018223
100.46713031635
100.466722572358
100.466008311282
100.465203882451
100.464644706849
100.463900641336
100.463295693882
100.463433593498
100.465024891726
100.463792693857
100.467447742743
100.463167476674
100.466411134496
100.466712322158
100.467694113329
100.468829531075
100.468918207134
100.469090184139
100.469221232282
100.4693392453
100.469356562962
100.469512712866
100.470332550677
100.470636498897
100.471076344851
100.471457329723
100.471390190439
100.470867589544
100.470631241839
100.470496881701
100.470247702968
100.470033991539
100.469553825521
100.469301134043
100.468830989631
100.468230242035
100.467828426608
100.46745303791
100.467189340707
100.466576293275
100.466082923359
100.465706403011
100.465556599478
100.465431254608
100.465276657755
100.464176881681
100.463904648668
100.46289030634
100.462475089654
100.461838056171
100.460278989077
100.460252164545
100.45951783914
100.460643794567
100.460376314051
100.460395305803
100.458017447286
100.456593993384
100.457339801085
100.452846936845
100.45696799805
100.462055126717
100.466635585704
100.468900482907
100.471963000552
100.472004180969
100.473042625039
100.473849891477
100.475910445978
100.475178752236
100.476672777502
100.476366637098
100.476117837027
100.475183691309
100.4734345051
100.466553988606
100.460949675086
100.455402254713
100.451783911036
100.448939913946
100.445851939283
100.446596870665
100.440063299589
100.431961400048
100.420303154059
100.406988701364
100.432298761117
100.434749150387
100.43555336994
100.439085703348
100.44744967997
100.455195364364
100.4492470748
100.464002283141
100.470601995033
100.468040565931
100.474350488008
100.469916041449
100.470034424034
100.474954769139
100.470322646849
100.468115542202
100.472251424066
100.466305409387
100.468111367095
100.462189868847
100.470752083366
100.461566592155
100.462619500957
100.458147654467
100.453150586601
100.449510696524
100.449414656111
100.456938068755
100.456085040873
100.457590122988
100.460315395398
100.461221913275
100.461255073053
100.461059174376
100.462306259241
100.461041209576
100.458078213606
100.454978676491
100.448208709344
100.439654773522
100.435518274345
100.427368844582
100.417500242764
100.418184343187
100.423429905111
100.437010518525
100.436583040121
100.448089701339
100.445262185974
100.44489289644
100.443302584258
100.444274006071
100.446639876481
100.445749468642
100.449111866445
100.422439995545
100.406186033566
100.400288659243
100.40342592556
100.418290337733
100.415342162134
100.393655997855
100.382100176973
100.387140923784
100.357757095344
100.353040872856
100.350434474623
100.355142751202
100.342381141034
100.326753895795
100.298770482754
100.283477425446
100.32193730544
100.314171958602
100.31797570464
100.331322311391
100.362874499599
100.376850994487
100.369082892778
100.401708376412
100.423870677863
100.424728010613
100.423730432827
100.422538422748
100.419639652596
100.40520779263
100.43201750379
100.407767450418
100.415126659397
100.402037742204
100.397057535559
100.395367734384
100.397605402243
100.423787134902
100.425315556699
100.434251004371
100.448598841683
100.447281166876
100.435108857623
100.418961845596
100.396394894429
100.378314042152
100.350474798647
100.33118710236
100.326629251267
100.327704711441
100.338179548082
100.360683457158
100.353382885548
100.366453190323
100.356449178457
100.361041528653
100.360386292407
100.360117368229
100.36503099823
100.321229490869
100.304705509368
100.313143903864
100.348453957429
100.391388175692
100.422057488852
100.444760922154
100.460473586007
100.465912381423
100.469745727114
100.469935411481
100.471763826143
100.482720050459
100.52093321003
100.50257914286
100.501759391987
100.502932598414
100.497313917915
100.502300285691
100.504464783616
100.522734984223
100.508346156252
100.503074678459
100.496903302712
100.463021216785
100.446796621974
100.44747279592
100.453536358537
100.472096000551
100.459865598197
100.454674703436
100.449997444278
100.44250541282
100.445728974352
100.45240091251
100.45520805325
100.451113051243
100.45016184904
100.45813678463
100.46256183094
100.464400622484
100.475818655685
100.447948307443
100.44485383686
100.437954237932
100.425436646249
100.426186980995
100.442518098197
100.429132376255
100.429200116776
100.420736534839
100.416840235695
100.42319412331
100.427657147743
100.471088879854
100.471609497555
100.468157076611
100.468455379254
100.457682830856
100.46301722601
100.46187530339
100.462198403112
100.46140957758
100.461733565971
100.461569237922
100.461377600118
100.461689128808
100.462321551463
100.462348036295
100.462897007488
100.461054019278
100.461173138634
100.460057359556
100.459944847117
100.460674643393
100.461627221822
100.46307899287
100.464725484505
100.465296521759
100.464602980581
100.464535554191
100.464007848999
100.464371495839
100.46420741697
100.464980666535
100.464698207459
100.464476483298
100.464339788983
100.464367833605
100.464260022922
100.464473079958
100.464459334081
100.46480139987
100.464137038644
100.464310794695
100.464732640276
100.464821446309
100.465020962323
100.465151891084
100.465078974983
100.465014667667
100.464978937175
100.464609392107
100.464800380916
100.465010344286
100.465091558206
100.463971840541
100.465977216967
100.466477888042
100.467267568934
100.465286955521
100.465247134689
100.464954198284
100.465029172848
100.46517518911
100.465170418754
100.465893810235
100.466734309338
100.467680928064
100.467664570654
100.467396023855
100.465764297259
100.465137461872
100.464521466573
100.464671303571
100.464031959193
100.464893284792
100.463971690909
100.463287015091
100.462958176206
100.462362519581
100.463398865531
100.463828375004
100.464776421075
100.466268833975
100.467706620402
100.470075185049
100.46953102324
100.468213324506
100.46778733558
100.466607914399
100.465419510946
100.465372943787
100.465776068123
100.466006637556
100.468690360822
100.470887162096
100.473263047457
100.475870786342
100.472179000825
100.469614199836
100.466528339939
100.465861986083
100.465163101172
100.464743702882
100.4645280915
100.464287242943
100.463943603119
100.46419373469
100.465032731362
100.464660382996
100.465254910276
100.466057184899
100.467241483405
100.469463934375
100.471299072287
100.472610080673
100.470753716844
100.472879440277
100.475347035749
100.471947930283
100.468081276252
100.465605572838
100.464989014422
100.462868105121
100.462812047195
100.461627976454
100.461086571541
100.462101308562
100.461327934345
100.462434249947
100.461907082414
100.461094410841
100.460723365927
100.46084083681
100.46022039642
100.460286943712
100.459878846665
100.45998381638
100.460071621679
100.460271745376
100.460508757506
100.461095681623
100.461239241526
100.460936212785
100.460559640546
100.460041729433
100.460116805863
100.459821153247
100.459576316399
100.459705720859
100.459575604403
100.459963020721
100.460117517408
100.460775258533
100.459666718249
100.46009340393
100.459667284999
100.460348046239
100.461629635487
100.46328137414
100.465883883988
100.465244366856
100.467221051019
100.468855511386
100.469135006789
100.469012794617
100.468335438861
100.467301817388
100.46606566775
100.465519130374
100.464584195994
100.463689383712
100.463481583065
100.463787152749
100.463410060308
100.463672672576
100.463637304213
100.46394306283
100.464836273023
100.466142736414
100.466880953724
100.467892329841
100.468474597958
100.468792463809
100.468462108592
100.466510575468
100.466812985808
100.466978285847
100.463693047368
100.462795464893
100.461680250599
100.460673620889
100.459829158852
100.459841830794
100.458719590531
100.458557586982
100.458697138546
100.458826758047
100.459095627991
100.458920558798
100.458894234055
100.458961149404
100.459641483703
100.459938615313
100.460618957974
100.461134958663
100.460692014535
100.461317915335
100.461633331595
100.462033840617
100.461391019039
100.461727022591
100.461663860787
100.462618011244
100.462534814373
100.461799835299
100.461866959694
100.462465364501
100.462217688456
100.462725241093
100.46302878453
100.4628254527
100.462694776192
100.462837833646
100.463294277544
100.4634017246
100.462056538115
100.461625189245
100.460976447588
100.460820959764
100.461405743472
100.462402647206
100.463615646696
100.466512683812
100.464609076767
100.463551340088
100.462470455306
100.461866525052
100.46296761712
100.463445515098
100.464883631945
100.465342810643
100.467820989584
100.471398655488
100.473769704636
100.473962466527
100.470692619836
100.468383651674
100.467377845913
100.466691293186
100.467043016427
100.467975763473
100.470010532547
100.471826117059
100.46630269852
100.465059665016
100.466285040965
100.466644259814
100.466057249487
100.465717751925
100.465377934174
100.465430375719
100.465558673716
100.466020659818
100.464490572287
100.464492826129
100.464576333385
100.46459038935
100.465040289385
100.464615003036
100.464439294309
100.46392205708
100.464062590828
100.464191661183
100.463678881933
100.463534518947
100.463517010019
100.464066028946
100.463625763957
100.463446052753
100.463146613932
100.464577661596
100.465563168864
100.468131944079
100.471645906588
100.473864306847
100.473299646114
100.473227474734
100.47360260383
100.471673815187
100.469409721335
100.468113368628
100.467679848921
100.46735246464
100.467960114391
100.468787213479
100.470316721074
100.473557006071
100.473554905582
100.473214097373
100.472595693428
100.472217934994
100.473435363045
100.473500096968
100.470562000135
100.470425708287
100.470232695571
100.468551304321
100.46686645608
100.465741217287
100.466212377697
100.466572054145
100.466012851469
100.467144670308
100.467533199577
100.466939798071
100.467872680268
100.467350201031
100.467397203072
100.467519662222
100.468826313593
100.468631065264
100.468094606437
100.467973698658
100.469155427702
100.468172782132
100.465550071979
100.465727975769
100.462895273413
100.462851624982
100.463320053872
100.464763985121
100.464982676035
100.465814048118
100.466087713268
100.465639917506
100.464863320174
100.463927510797
100.462840008172
100.460460962644
100.46023517383
100.46670310509
100.461471308419
100.461228629402
100.461266744678
100.462260169066
100.463823769777
100.464289820842
100.464568468899
100.462619205931
100.462028669683
100.460892748098
100.460627725967
100.460788998571
100.460342190082
100.461782854015
100.463221880029
100.463222646142
100.463713508643
100.464795309782
100.463980622187
100.464372637509
100.464831746291
100.465833884191
100.465536678528
100.46577427785
100.466245852866
100.467376200394
100.46740551566
100.467599267075
100.467557963584
100.467320977446
100.468166825567
100.467988145679
100.467919060012
100.468049849091
100.467693530834
100.46811922088
100.467590251507
100.467785450355
100.467457125616
100.467270915724
100.467566612471
100.466957200295
100.467614385679
100.467693974405
100.468318133201
100.470007071133
100.4723440955
100.470326166811
100.46868911445
100.468638309663
100.47139718442
100.470026787041
100.472934339738
100.46927417267
100.470404146239
100.470543856807
100.470020511995
100.468910659042
100.470235018333
100.467481870659
100.465591134937
100.465452412831
100.464770754078
100.463483764101
100.459574608261
100.45954905861
100.460181452227
100.459926124186
100.46135717279
100.462843479079
100.462989470827
100.462792532374
100.463220883054
100.464119948586
100.463862070716
100.463669203454
100.464274178329
100.465084423437
100.464865868772
100.464973650072
100.465474347349
100.46604684767
100.466326088096
100.466298085418
100.467877503736
100.467172401211
100.467404631115
100.466802807073
100.467610965261
100.467732345153
100.467643984253
100.467669435827
100.467674528371
100.467760914965
100.468224988141
100.468044784725
100.468997538382
100.468749030331
100.471089867326
100.467377340692
100.463444749081
100.462733804319
100.463601658648
100.46493485511
100.465641903835
100.465939523329
100.466748318498
100.468290184405
100.468988748017
100.469499127721
100.473304339037
100.48485562993
100.503109397911
100.542673638777
100.548961277356
100.491629170762
100.439724339916
100.385511484806
100.356081517526
100.374606142054
100.371886418201
100.369074597132
100.369170877941
100.370080484272
100.371007619677
100.372199958879
100.373930330128
100.376143801134
100.378548720648
100.380705940519
100.382290233299
100.383126273145
100.381789892575
100.379962033118
100.377702014072
100.375267839445
100.372950748751
100.370961981005
100.369353201979
100.3681046057
100.367131418528
100.366334986379
100.365683358855
100.365198862747
100.364951187961
100.36499312386
100.365465366505
100.366664291143
100.3685675114
100.370738777524
100.372284794735
100.372750271946
100.372805112204
100.372859271763
100.372873284166
100.372881159419
100.372886210601
100.372894769165
100.372867963513
100.372870873563
100.37304231281
100.373081086519
100.373145621687
100.37297606368
100.372918071216
100.372851605728
100.372779099876
100.372776389705
100.372780292236
100.372772560698
100.372851927634
100.372807742072
100.372816927587
100.372810452711
100.372813322164
100.372798069594
100.372627763161
100.372725286618
100.372774267756
100.37275234847
100.372772541675
100.372752073937
100.372784105505
100.372707781022
100.372714002457
100.372652891651
100.372790044501
100.372675574584
100.372600972715
100.372331483257
100.372404016256
100.372326114201
100.372559113688
100.37253130196
100.372623561634
100.372657626786
100.372690818729
100.372660609273
100.372702275876
100.372655091332
100.372702251805
100.372643089896
100.372570931003
100.372324611945
100.371668997448
100.372308858234
100.372565280603
100.372617218556
100.372649883041
100.372659983362
100.372615583948
100.372665034049
100.372652943186
100.372636741158
100.372627905487
100.372504058501
100.372400311485
100.372309686514
100.372170527594
100.372422114193
100.372256238416
100.372463431231
100.372581438983
100.372585886809
100.372606858519
100.372637506646
100.372609186323
100.372616303096
100.372606422291
100.372561202025
100.372515301645
100.372253525961
100.371402163153
100.372260078145
100.372500896689
100.372530984972
100.37257139996
100.372584915749
100.372576772278
100.372595704595
100.372548746085
100.372507286374
100.372486766735
100.37230656945
100.372291970364