/*--------------------------------*- C++ -*----------------------------------*\
| =========                 |                                                 |
| \\      /  F ield         | OpenFOAM: The Open Source CFD Toolbox           |
|  \\    /   O peration     | Version:  v1612+                                |
|   \\  /    A nd           | Web:      www.OpenFOAM.com                      |
|    \\/     M anipulation  |                                                 |
\*---------------------------------------------------------------------------*/
FoamFile
{
    version     2.0;
    format      ascii;
    class       volScalarField;
    location    "1.1";
    object      p;
}
// * * * * * * * * * * * * * * * * * * * * * * * * * * * * * * * * * * * * * //

dimensions      [0 2 -2 0 0 0 0];

internalField   nonuniform List<scalar> 
80212
(
100.338550232251
100.337937834706
100.337888193332
100.340645752257
100.344196591547
100.344172335657
100.344488856191
100.344409703133
100.344930419012
100.346441008958
100.345767281312
100.344803833223
100.345117365326
100.34623654079
100.34685802891
100.34508059954
100.34450927483
100.344494805588
100.344176233375
100.344191055678
100.344759230989
100.344987102293
100.345865802087
100.347620104192
100.346026342906
100.343958606342
100.343009610097
100.342830699582
100.343263232277
100.343631191407
100.34623734106
100.346026210687
100.345280797846
100.344896518837
100.3434641799
100.343760965653
100.344486903859
100.343704682439
100.345155501498
100.347124463504
100.34704562687
100.345070868152
100.343655737936
100.344470281782
100.343750328921
100.34344855078
100.34487471337
100.345261211754
100.345997366023
100.346231748044
100.34362919813
100.343265033004
100.342840142143
100.343020256365
100.3439692998
100.346036619697
100.347628833241
100.345873623613
100.344999464301
100.344771904161
100.341680209255
100.341996198434
100.341450064372
100.341691847128
100.34143121607
100.341335311174
100.340898963566
100.340634452729
100.341127967421
100.341075946544
100.341428323824
100.341342879294
100.341130624046
100.34165529244
100.34096315578
100.340512290619
100.340758295559
100.340743448827
100.340816542756
100.340546107574
100.340539611694
100.340809238853
100.340734212795
100.340754099831
100.34052653746
100.340999458296
100.341691860454
100.341162160032
100.341359848337
100.341432762159
100.341071536653
100.34112080482
100.340623677778
100.340891086932
100.341324925989
100.341417159926
100.341679930258
100.341438313264
100.341981067345
100.34166603807
100.340643514597
100.340734865231
100.341918253848
100.342338667827
100.341781926525
100.342419531775
100.341908847849
100.341668261966
100.341830878403
100.342213890269
100.342601153361
100.341841567694
100.342378283906
100.341946811975
100.340749391208
100.337980217167
100.33957191012
100.337129911464
100.33721092256
100.337351354913
100.340066154856
100.338387586469
100.33641420368
100.337475972656
100.338425754031
100.338543340994
100.338248420221
100.339180539356
100.339370755662
100.338259480736
100.338590716
100.338481421279
100.338437304297
100.338147338064
100.337010623372
100.336391991944
100.338236989016
100.337580449063
100.336620651454
100.336610680022
100.337583035181
100.338211405358
100.336366498857
100.337011758602
100.338199782288
100.338493291622
100.338533770924
100.338619121865
100.33826453413
100.339362880056
100.33917171989
100.338238853145
100.338533843534
100.338414230349
100.3374634408
100.33639924933
100.33837468774
100.340047310617
100.339221422863
100.33788031461
100.337947443234
100.339515347634
100.340660525719
100.338819053109
100.336913741317
100.337671137688
100.338481589808
100.338575497906
100.337866087361
100.33710160784
100.33897441339
100.340756355437
100.337141311315
100.327969523197
100.328528605478
100.328673024199
100.328229743559
100.32906965787
100.337421158004
100.33780355906
100.337834505477
100.338676429131
100.340380308617
100.337785864472
100.336989682963
100.335799507804
100.339016081103
100.336746078887
100.336186352752
100.33485362622
100.336003077755
100.335485703946
100.339410360133
100.339454881786
100.335513620882
100.336087564919
100.335212218833
100.336329402432
100.334806947811
100.337408195016
100.337920893338
100.338441584579
100.336882902465
100.339135043644
100.335826972067
100.336978803448
100.33777470112
100.337400127965
100.337325967274
100.337188644297
100.337124980205
100.33714568646
100.336944257081
100.336918568209
100.328872071026
100.3273540861
100.327066611959
100.327340007601
100.327374325953
100.327144667395
100.327502933675
100.327596563504
100.328954243738
100.328835021833
100.329022576377
100.330055198894
100.335206997859
100.334605210372
100.331241079679
100.32956283163
100.328472667974
100.328563228338
100.330413400451
100.329955777131
100.329920479106
100.33033414832
100.329951848491
100.328935520625
100.328785722896
100.32891963361
100.329046302674
100.32821118583
100.32866190228
100.328530671201
100.327992494139
100.328902824394
100.327356867065
100.327924706795
100.327930228223
100.327909934814
100.328038381177
100.328053887703
100.327985575085
100.328098142988
100.328203392457
100.328377092633
100.327768808427
100.328081172351
100.328335195276
100.32837576289
100.328355533409
100.328644623739
100.328916514916
100.328864442646
100.328435051945
100.3283411242
100.327985553715
100.327709638728
100.327553712165
100.327468207759
100.32711518975
100.327360343763
100.327326584484
100.327053872646
100.327882230159
100.327734955683
100.327750246335
100.327760305894
100.327760552057
100.327871080065
100.327892433087
100.327878332344
100.327950327853
100.327948193744
100.328066721198
100.327943576596
100.327909259199
100.327855206125
100.327959646782
100.327958513952
100.328627457096
100.328266333271
100.328275245539
100.328268549181
100.328333431896
100.328160330919
100.328054575683
100.327950091011
100.328019381749
100.328008264904
100.327831523255
100.326801240627
100.326730294611
100.326770832562
100.326784168631
100.326770182003
100.326859371803
100.326888674469
100.326889603156
100.326986726845
100.326956856561
100.327024160498
100.32694810047
100.326957373112
100.326921713175
100.326965351344
100.326965434235
100.326923816133
100.326955363871
100.327895873355
100.327900373285
100.328016876151
100.327895449649
100.327889894939
100.327824108324
100.327839896617
100.326811753517
100.325618058423
100.325599766835
100.325559590903
100.325609459921
100.325632103474
100.325624461386
100.325697053989
100.325738802605
100.325753144278
100.325869426293
100.325870417624
100.325934218363
100.325905893534
100.325956831693
100.325947676175
100.325979213167
100.325955958185
100.325895021152
100.325881420961
100.325801633464
100.326901976168
100.326963024093
100.326871454256
100.326897832715
100.32680645135
100.325616168229
100.32447237995
100.324459556525
100.324437602892
100.324407789407
100.324470715809
100.324510649479
100.324518509277
100.324600571827
100.324660560029
100.324691691799
100.32483832185
100.324872240008
100.324950541138
100.324954811996
100.325034076213
100.325040682118
100.325079455174
100.325056689453
100.324973026598
100.324921696207
100.324803524874
100.324779995139
100.324671512256
100.324621964016
100.323454453236
100.323246310684
100.323226595262
100.323199038152
100.32316010704
100.323258429465
100.323326326801
100.323353284455
100.323468328658
100.323554102694
100.323599199234
100.323796223509
100.323867367775
100.323969937115
100.324004480668
100.324129553445
100.324148590378
100.324225211976
100.324223684971
100.324144194687
100.32405063217
100.323816767149
100.323708154279
100.32355533047
100.322206033478
100.322017455265
100.321730023704
100.32172458018
100.321694031242
100.321614091308
100.321797689898
100.321911207508
100.321951435313
100.32213242748
100.322256907641
100.32228624494
100.322559252306
100.322691857577
100.322839904483
100.322936658673
100.32315166257
100.323168050532
100.323359837395
100.32335243437
100.323158062322
100.323027781908
100.322656386021
100.32243715134
100.32073380522
100.320406288542
100.320065122152
100.319582732628
100.319677744253
100.319677167461
100.3194900925
100.319874813885
100.320058354811
100.320082579491
100.320376782616
100.320535182164
100.32045411022
100.320894485257
100.321126560361
100.321341816954
100.321586612826
100.322039709293
100.321949751675
100.322337866188
100.322287047388
100.321824826315
100.321756451409
100.321130588828
100.318966519329
100.318006536775
100.317527475589
100.317047023867
100.316223644313
100.316508556077
100.316602381881
100.316236712772
100.317101568722
100.317402067434
100.317245462265
100.317815384095
100.317954604869
100.317663876366
100.318393198952
100.318637659747
100.318914808823
100.319649837266
100.3205696136
100.320151232568
100.321031706214
100.320936672311
100.319858671076
100.320116521683
100.318570689461
100.315815118854
100.31208480562
100.312222076312
100.311529985894
100.309815392613
100.31084511304
100.311005608933
100.310343568616
100.312255779217
100.312800461989
100.312089739154
100.31322719946
100.313261657384
100.312266950972
100.313761204864
100.313906610856
100.313473946726
100.316880707094
100.31907098671
100.317664386633
100.319530022246
100.319375347114
100.317183550634
100.314863331391
100.309536339396
100.304044842718
100.302276902873
100.305073872846
100.30407807703
100.300415010484
100.302695304776
100.303153371879
100.30197599877
100.305477114775
100.306581412729
100.304955140929
100.30696162383
100.306705171814
100.304365571247
100.307463391396
100.307793628446
100.30428451787
100.305425875197
100.310505067422
100.315479787274
100.310725989322
100.309437664028
100.309190857683
100.310213162959
100.324081686882
100.325061376894
100.322747120044
100.31612522633
100.316287847406
100.313829986827
100.310508063956
100.312429476189
100.313470231698
100.313748700311
100.316470113017
100.318233079165
100.318612140027
100.319515822304
100.318651370519
100.316303701049
100.318445397228
100.319764230367
100.318889329207
100.324452573002
100.32616436812
100.324357856522
100.329732998041
100.329462021435
100.368728431753
100.364579600198
100.360115602734
100.358040134229
100.351131472334
100.3470947414
100.342933297493
100.345295975875
100.341262062444
100.344359747182
100.34703306306
100.359026666556
100.381465065844
100.385584275604
100.366275746167
100.349117594426
100.344930312439
100.39353298444
100.430750387929
100.414966140846
100.422131440869
100.434702515129
100.419100303971
100.404971730206
100.355827528407
100.35307896302
100.34968895638
100.353289289504
100.348895382436
100.351148913343
100.354086158434
100.359796298443
100.361152104591
100.364802296441
100.368765726569
100.410533342808
100.410787210831
100.426349155555
100.41451369842
100.405398871867
100.40032794418
100.395650098488
100.402224056926
100.382765302187
100.377594042522
100.392759816703
100.381904275488
100.391689479878
100.396888615718
100.402851711552
100.415843161854
100.448738162911
100.450280278117
100.458843847441
100.471887361244
100.447579681039
100.447110377225
100.439545971302
100.404154836309
100.392796871479
100.413015107111
100.443468863117
100.461955782606
100.474858594568
100.479265936752
100.480584463007
100.483007275559
100.484236654604
100.484575180179
100.484621669143
100.484714077215
100.485060283086
100.485444775256
100.485844576357
100.486617685223
100.487487232751
100.488026907391
100.488075645595
100.487833985014
100.487488078457
100.487167876763
100.48684813944
100.486075229693
100.485299596762
100.489110122169
100.495292918977
100.516819368195
100.51339163213
100.469524238439
100.426997664427
100.38125579116
100.35586326988
100.37239594388
100.372632267065
100.370804366449
100.370892234762
100.371846651181
100.372885102891
100.373994185729
100.375311742802
100.376791887764
100.378247281009
100.379472085186
100.380324743829
100.380728057508
100.380313978251
100.37978189503
100.379080420435
100.378187915759
100.377063108296
100.375631380597
100.373890214716
100.371967609454
100.370044851482
100.368325795674
100.366907976667
100.365805971818
100.364978163996
100.364391611113
100.364086494392
100.364117719466
100.364522011384
100.365347994646
100.366652128502
100.368359004327
100.370118025428
100.371468020957
100.372010387321
100.371997442221
100.37206622611
100.372048287153
100.372059926881
100.372078297709
100.37209340687
100.372116843095
100.3721578494
100.372299060133
100.372422463184
100.372477475867
100.372529969556
100.372494412328
100.372295170148
100.372197361856
100.372160759385
100.372139175029
100.372267705349
100.372211281854
100.37208992135
100.372068078742
100.372048819774
100.372023377823
100.372029208146
100.371998472917
100.371998246775
100.372009798028
100.37196272173
100.371826792041
100.371897876938
100.37195952849
100.371960756143
100.371959602659
100.371980345753
100.372007793169
100.372016606005
100.372013947209
100.372132981611
100.371953552423
100.371997193628
100.372023681392
100.371928188508
100.371894898911
100.371950772869
100.371949343215
100.37191314508
100.371901217923
100.371893992824
100.371884451148
100.37180231948
100.371781378982
100.371468997625
100.370835922848
100.371446202564
100.371755583796
100.371744782522
100.371818708481
100.371824193919
100.371843856394
100.371860901693
100.371898212633
100.371855680385
100.371919287067
100.371954301407
100.371940446002
100.371764298411
100.371738769201
100.371769951147
100.371718097853
100.371640492758
100.371719783896
100.371658838958
100.371768137283
100.371841060794
100.371861867331
100.371817233281
100.371827635711
100.371787477838
100.371785496978
100.371763181627
100.371758071419
100.371678558689
100.371679641789
100.371393699392
100.370621333066
100.371373942317
100.371650513013
100.371642717521
100.37170809865
100.371709482693
100.371711947064
100.371758811193
100.371762180159
100.371745679564
100.371805468855
100.371770557842
100.371611543676
100.371624620714
100.371709147002
100.371610674413
100.371672474987
100.37161804376
100.371735642621
100.371684421709
100.371714255081
100.371716713735
100.371662079697
100.371690218058
100.371664239194
100.37164954324
100.371604336858
100.371590284701
100.371341376496
100.370594364977
100.371366275676
100.371587233441
100.371590155651
100.371616387813
100.371637730959
100.371639853122
100.371661226826
100.371654832592
100.37161276607
100.371633253754
100.371592210644
100.371597413276
100.371586790527
100.371375560187
100.371262855371
100.371192939164
100.371381505852
100.371285909024
100.371516169553
100.371563891685
100.37156406267
100.371583391388
100.371632423639
100.371616339892
100.371614898171
100.371593591306
100.371577630806
100.371572141119
100.371380012739
100.370560329392
100.371480299633
100.371570561345
100.371577634253
100.37157277736
100.371595316623
100.371570938823
100.371633790809
100.371614184684
100.371532708087
100.371527669824
100.371483492857
100.371345230695
100.371304244752
100.371496171722
100.371535808403
100.371564897475
100.371531922518
100.371479579087
100.371325977117
100.371164601997
100.370716874258
100.370350687077
100.370782560475
100.370725154843
100.371194457122
100.371071819348
100.371343314708
100.371496251841
100.371542087434
100.371611506246
100.371607516892
100.371575286184
100.371544254681
100.371597191548
100.371606374881
100.371563615804
100.371574728066
100.371534131088
100.371264356297
100.37018456674
100.368539250075
100.370493599105
100.371400361314
100.371533648489
100.371582920881
100.371576909464
100.371607724622
100.371610031904
100.371557522357
100.371643707255
100.371665978448
100.371546503136
100.371559230789
100.37149424415
100.371336449542
100.371128147032
100.371420237714
100.371532886872
100.371593944561
100.371607060296
100.371538272269
100.37135866785
100.371044846367
100.370609524818
100.370836926293
100.371251716315
100.371132340267
100.371443927817
100.37159626328
100.371672720585
100.371634881674
100.37172040046
100.371678391299
100.37159584583
100.371554803758
100.371618451046
100.37156856385
100.371591074001
100.371551406683
100.371467045462
100.37066802641
100.368786616645
100.371007467556
100.371564864595
100.371602178363
100.371602395709
100.371656946691
100.371670134425
100.371633123441
100.371634288399
100.371558304299
100.371265420885
100.370446342045
100.368815234791
100.367235947459
100.369602659258
100.370911046319
100.371412544106
100.371601322671
100.371659880825
100.371656942164
100.371654561566
100.371716240011
100.371785607641
100.371688767343
100.371723135992
100.371659899659
100.371518651848
100.371315125506
100.371597058513
100.371725208486
100.371751587885
100.371789044706
100.371784145788
100.371616421822
100.371327447408
100.370848621687
100.371406910715
100.371543287921
100.371794348068
100.371730043466
100.371854417894
100.371852553129
100.371727817703
100.371818238094
100.371809177216
100.371662369745
100.371634030874
100.371683074807
100.371712599958
100.371636809787
100.371611253526
100.37150612133
100.371182789387
100.370009490338
100.368232117612
100.370786061975
100.371474856905
100.371541471294
100.371604288644
100.371619331579
100.371696020561
100.371677763136
100.371670096005
100.37160802237
100.371829725052
100.371810920316
100.371819822571
100.371861201666
100.371741511983
100.371467122332
100.37089171182
100.371524775134
100.371622270094
100.371893299816
100.371833861542
100.371914647696
100.371898265486
100.371726639195
100.371816724987
100.371660698869
100.371642093292
100.371576231635
100.371577984663
100.371521834025
100.371446688452
100.371250113449
100.370463158606
100.368575293988
100.367466240675
100.36982748901
100.371064473801
100.371375458209
100.371460154368
100.371529439071
100.371533562999
100.371621109279
100.371580094811
100.371818333193
100.371836070467
100.371884084774
100.371993796405
100.371968912651
100.371695048361
100.37116656563
100.371762859396
100.372065024746
100.372062879697
100.372075839977
100.372061370682
100.371947170781
100.371807702823
100.371825967263
100.371659300382
100.371609135284
100.371555420252
100.37150691105
100.371482762859
100.37141150587
100.371302412129
100.37035647354
100.368864546073
100.3711214781
100.371461128309
100.371448919566
100.371466685852
100.371531807535
100.371575606765
100.371585676325
100.371836924786
100.371827674091
100.371837458296
100.371744833555
100.371982269667
100.372146388215
100.372206515037
100.3719782604
100.37137157226
100.371900833462
100.372158344386
100.372121126861
100.37196422571
100.371912850843
100.372124429249
100.372147166693
100.371881265786
100.371365258347
100.371877407162
100.371971494141
100.37208152259
100.372151047061
100.372095184801
100.371976635793
100.371792185685
100.371796787659
100.371856790602
100.371652582698
100.371536824307
100.371575244775
100.371590017299
100.371523540856
100.371492577817
100.371419098769
100.371382022123
100.37105170485
100.369370349327
100.368298754598
100.370787699845
100.371455482951
100.37142981959
100.371469196632
100.371515534094
100.371561016155
100.371604786355
100.371587444329
100.371626816265
100.371625650563
100.371837927036
100.371782081821
100.371851825165
100.37175649337
100.371943532993
100.372057968369
100.372088798907
100.371904751126
100.371291635474
100.371734378573
100.371970917487
100.371978466381
100.371879805866
100.371848741518
100.371958747877
100.371888246568
100.371626366601
100.371065222386
100.371564904239
100.371679838342
100.37181983904
100.371909168274
100.371929936655
100.371893834911
100.371794655663
100.371800552029
100.371847681619
100.371694866571
100.371605497362
100.371614807209
100.371589809598
100.37154374269
100.371520044713
100.371436217864
100.371310793161
100.37061883009
100.368799061137
100.368057676382
100.37026714596
100.371275666943
100.371463831106
100.371565780352
100.371589622551
100.371596722821
100.37167142627
100.371702906504
100.37164088117
100.371642439737
100.371619759121
100.371666404508
100.371523238265
100.370835691404
100.369792932775
100.371436464789
100.371696764097
100.371694400382
100.371695538147
100.37168649176
100.371759544181
100.371691379126
100.371875683614
100.371809143669
100.371888299437
100.371793815596
100.371888737749
100.371906969177
100.371850395487
100.371577960359
100.371728160256
100.37183024717
100.371817204339
100.371896542487
100.371903603379
100.37181450669
100.371594546246
100.371123852505
100.371384258406
100.371675403541
100.371787893559
100.371798145857
100.371793983743
100.37183105052
100.371721283821
100.37173346198
100.371807234357
100.371729179974
100.371762199706
100.371739531488
100.371744261198
100.3714719351
100.370483677133
100.370128311823
100.371464414249
100.371770098919
100.371806064167
100.371816755907
100.371788437268
100.371853900101
100.371739369794
100.371909584245
100.371876659137
100.371850435544
100.371848807535
100.371733842231
100.371470801945
100.371013612506
100.371313760301
100.371597249261
100.371731514316
100.371770217115
100.37182525543
100.371800575304
100.371789183561
100.371801601101
100.371860432215
100.371811471145
100.371832975096
100.371830487214
100.371845219065
100.371608537795
100.370930942255
100.370911618224
100.371741696714
100.371860546932
100.37185548555
100.371844958925
100.371841357927
100.371818528751
100.371844008455
100.371791149884
100.371866792996
100.371809989459
100.371784492513
100.371644064866
100.371410433089
100.37098417814
100.371321445046
100.37157417781
100.371711774514
100.371747952227
100.371801471298
100.371836348071
100.371783431863
100.371750345084
100.371610578038
100.371390358227
100.37105285403
100.371334039534
100.371588851778
100.371723085573
100.371750814295
100.37180712737
100.371794102957
100.371825624186
100.37185279667
100.371835737836
100.371859125826
100.371872196386
100.371880926757
100.371903022474
100.371919696239
100.37144630352
100.371603142895
100.371947715953
100.371934570719
100.371929778749
100.371905224322
100.371880608602
100.371849910765
100.371856395525
100.37180294363
100.371829518327
100.371777376201
100.371750592898
100.371626596101
100.371474653993
100.371159906376
100.371423994283
100.37161391981
100.371734577821
100.371763376207
100.371819841556
100.371843016892
100.371790855938
100.371757033471
100.371673754454
100.371585575301
100.371342883105
100.371523131622
100.371665854737
100.371771061212
100.371791873085
100.371846418393
100.371820819092
100.371852221523
100.371867626477
100.371871484032
100.371907209209
100.371930526389
100.371959573106
100.371994058547
100.37202050876
100.371959246975
100.372049091694
100.371241565869
100.369563912912
100.370187056925
100.36825736707
100.369070159201
100.367334768263
100.368356359663
100.366898185147
100.36605948824
100.366849555694
100.366021590327
100.367071261234
100.36616817625
100.36554022121
100.366506603052
100.36585554526
100.365505930289
100.366718659475
100.366563258283
100.366585250375
100.368515872592
100.368744406577
100.368973839203
100.369293022338
100.36965935081
100.371054613677
100.370772629049
100.371193669388
100.371577361717
100.371808126533
100.372149577158
100.37208678419
100.372154118355
100.372167242295
100.37219628075
100.37220981151
100.372247546055
100.372282792467
100.37241892286
100.372561758117
100.372732129229
100.372823987782
100.372837909022
100.372689197001
100.372625899609
100.372443370321
100.372196303948
100.372099201799
100.37216244237
100.372226323379
100.372461024613
100.372243728514
100.372126724053
100.372048757003
100.371878618887
100.371634079791
100.371247573874
100.370921054338
100.371087257034
100.371188992028
100.371069047338
100.370907902958
100.371080204127
100.371139395118
100.371318472853
100.371420300262
100.371387819666
100.371483888476
100.371672931218
100.371678312839
100.371807734744
100.371753822075
100.371904083643
100.371769859937
100.371826898934
100.37187878561
100.371928619349
100.372006255656
100.3720575765
100.372102986492
100.372125721789
100.372144336454
100.372163168051
100.372175745461
100.372252756149
100.372422191382
100.372581831595
100.372677842149
100.372698575341
100.372499669889
100.372309032055
100.372080885409
100.372085551231
100.372118488424
100.372081502955
100.372124747839
100.372320402426
100.372374386059
100.372525407349
100.372665440985
100.372834854282
100.3729504707
100.37296987219
100.372906479966
100.372720823926
100.372497463516
100.372353544926
100.37196340392
100.371536926931
100.371098007144
100.371232973502
100.371358726563
100.371298337039
100.371167986355
100.371090962297
100.370320569456
100.369853868537
100.369694699559
100.369629231731
100.369479759754
100.369688384985
100.370009697162
100.370185814148
100.370241798949
100.369899114982
100.370282319411
100.37057559985
100.370670020567
100.3704651661
100.371698299591
100.371879242216
100.371843666315
100.371925438772
100.371942551619
100.372037684568
100.372083047856
100.372086073218
100.372108364273
100.372091862804
100.372144458897
100.372164427886
100.372194261737
100.372222008866
100.372250768344
100.372264343724
100.372332388485
100.372392147925
100.372452703561
100.372609971173
100.372776678866
100.372973289511
100.373089329642
100.373108058858
100.373074581138
100.372891893466
100.372657644189
100.372277034634
100.37184179235
100.371381860914
100.371234883055
100.370511366548
100.370142987906
100.370019388887
100.369918099979
100.369814967981
100.369571262329
100.369624720408
100.369971011778
100.370234136274
100.370279790524
100.370393287076
100.370083821872
100.370481953486
100.370737286916
100.370502799134
100.371215036297
100.371684871396
100.372116893314
100.372202750927
100.372183183528
100.372143489347
100.372226815213
100.37227384006
100.372310646497
100.372377964597
100.372402326519
100.372461161048
100.372513093258
100.372703700814
100.372895567898
100.373088909809
100.373211958669
100.373239755381
100.373201443548
100.373022080424
100.372772174419
100.372403233906
100.371967578548
100.371480148467
100.370784022323
100.370472658398
100.370341412109
100.369963845837
100.369700328998
100.369592508401
100.369427983585
100.369224227776
100.369448783261
100.369731409462
100.369456080779
100.369328851889
100.369115898084
100.36884992664
100.368604657703
100.368419592129
100.368270639046
100.368209327797
100.368446022226
100.36870469424
100.368897278295
100.369139580598
100.369317201987
100.368950398771
100.369045523445
100.369343658542
100.369413086162
100.370285885881
100.370935519413
100.371726674763
100.372061232923
100.372102425724
100.372159525619
100.37216469173
100.372296842236
100.372193621365
100.372228623727
100.37227037605
100.372327564849
100.37237956092
100.372436493094
100.372456097815
100.372528888328
100.372609736754
100.372833389334
100.373035115962
100.373221930641
100.373360853099
100.373386367688
100.373357938009
100.373173317864
100.372916375917
100.372531977633
100.372103395651
100.371621153992
100.370922475736
100.370620371415
100.370300103671
100.370080703948
100.370027801963
100.369792503316
100.369621691234
100.369919181426
100.369677327733
100.369447600672
100.369217532956
100.368898882771
100.368613556944
100.368166066205
100.368403763382
100.368790447754
100.36906364912
100.369189368892
100.369399882558
100.369378447526
100.369190734334
100.368401743323
100.368632616764
100.368914504602
100.36903036924
100.369256341941
100.36880833029
100.36827729003
100.367601712327
100.366956552618
100.36563085104
100.36572922874
100.366330344105
100.367000758187
100.367536264342
100.368054818865
100.368535681256
100.369628249987
100.366940609155
100.36653555896
100.366329788153
100.366198322785
100.365907640136
100.365573703608
100.364503313027
100.363665884504
100.361040432811
100.364711874044
100.36583695372
100.365017916499
100.363717755098
100.362910506266
100.361512784251
100.360251741936
100.360583331149
100.361405988875
100.363159115317
100.363102148735
100.36375859132
100.364815930413
100.3658698539
100.366547162061
100.367271799999
100.367859485334
100.368465946361
100.368944370693
100.369388045165
100.368966160381
100.369924006334
100.36756023616
100.372759957595
100.372858891472
100.372654382032
100.372301834212
100.371766442397
100.370950653413
100.369676707162
100.368093356261
100.367092343965
100.366073831068
100.368150742651
100.368461129755
100.366483946614
100.363870906489
100.362170228331
100.360744192301
100.35382609783
100.356192500642
100.356332121901
100.358077268854
100.359920354964
100.361091067199
100.365866047921
100.368037418153
100.370197627598
100.370193886291
100.370491341511
100.369040918072
100.369428639674
100.369809070761
100.370301358293
100.370645481237
100.37123775148
100.372107220842
100.372311318533
100.372256103325
100.372205008856
100.372306648776
100.372357114838
100.372435793175
100.372502116003
100.37251256457
100.372613830158
100.372692198082
100.37290710095
100.373131138186
100.373329212733
100.373477152645
100.373504652947
100.373483806626
100.373273183705
100.373017561443
100.372597405488
100.372155080842
100.371700708566
100.371024285308
100.370745376969
100.370424337072
100.370241769904
100.37020703183
100.370091377362
100.370349560209
100.370164499074
100.370229905594
100.37037801751
100.370533918329
100.370339761533
100.3701779096
100.369816258522
100.369941336619
100.370156030782
100.369988987407
100.369739257678
100.369380236237
100.36984045381
100.369461041848
100.369114789094
100.368779524848
100.368406668429
100.367998193327
100.367632472905
100.366961906462
100.367287171201
100.367782465556
100.368183955261
100.368432065023
100.368754327696
100.369088372891
100.369072164627
100.368801023351
100.368242720035
100.367770049666
100.367617201598
100.368176680858
100.368306492462
100.369888012979
100.370861672673
100.371192251104
100.37146323662
100.372405579917
100.372471180959
100.37230319685
100.372284448906
100.372396376502
100.372477354912
100.372542360487
100.372565334814
100.372691815506
100.372760699532
100.372954578045
100.373243655943
100.373460782343
100.373598830235
100.373621914738
100.373606335293
100.373386535467
100.373126903099
100.372714004351
100.372302570562
100.371818465329
100.371195981374
100.370895446003