/*--------------------------------*- C++ -*----------------------------------*\
| =========                 |                                                 |
| \\      /  F ield         | OpenFOAM: The Open Source CFD Toolbox           |
|  \\    /   O peration     | Version:  v1612+                                |
|   \\  /    A nd           | Web:      www.OpenFOAM.com                      |
|    \\/     M anipulation  |                                                 |
\*---------------------------------------------------------------------------*/
FoamFile
{
    version     2.0;
    format      ascii;
    class       volScalarField;
    location    "1.4";
    object      p;
}
// * * * * * * * * * * * * * * * * * * * * * * * * * * * * * * * * * * * * * //

dimensions      [0 2 -2 0 0 0 0];

internalField   nonuniform List<scalar> 
87341
(
100.097972926265
100.099985014099
100.096379076872
100.100890939311
100.107907655096
100.108144022563
100.106179523693
100.10678032726
100.106988099233
100.107311480477
100.107480842597
100.107212797812
100.108993703985
100.108539761334
100.110772909541
100.110821980811
100.108333747484
100.104893850401
100.102389340274
100.102055559083
100.101926693051
100.103355236962
100.101160628824
100.102907521497
100.105221960784
100.10937321379
100.103991963064
100.102948151377
100.102190370691
100.101991802863
100.10186983284
100.102292061204
100.10288214596
100.103875753518
100.109118837868
100.105059932553
100.102685193317
100.10086356194
100.10299557958
100.101539591971
100.101724654544
100.102064536724
100.104595001226
100.108027311334
100.110380547813
100.110229064669
100.10347849947
100.102553544888
100.099693374759
100.099795974569
100.10013105581
100.099977120456
100.099916878923
100.099712051541
100.097357297588
100.100759928976
100.104200330389
100.102655457262
100.099392488183
100.098373675445
100.097663490621
100.09834432113
100.098289829966
100.097517777819
100.09843473738
100.099467651542
100.102807211463
100.104414207447
100.101013846595
100.097605538998
100.100043494997
100.100257828172
100.100258586279
100.100392730623
100.099952484701
100.099850575599
100.102860780045
100.103887450586
100.101474055837
100.104669677813
100.107750543406
100.109268747382
100.10712504161
100.106887363553
100.108104933698
100.106265107086
100.103796043475
100.099540852594
100.105004222673
100.093485063247
100.082286278682
100.088292803288
100.08950196141
100.099621532541
100.094455252083
100.095503260007
100.098096479791
100.097076887413
100.096554474617
100.0966969997
100.095998225466
100.100366879292
100.100940672088
100.096779891191
100.097200870029
100.094422373775
100.093278504068
100.094271314964
100.094290079619
100.093350159462
100.094473147016
100.097219189647
100.096923104356
100.101112088125
100.100651217717
100.096172140703
100.097073733913
100.096903764467
100.097366379501
100.098382070487
100.09567897586
100.09454462548
100.100071799173
100.100373484376
100.097034367516
100.10074268314
100.107138214158
100.112127568526
100.105078997773
100.10490112111
100.109717909503
100.12505776857
100.094527914445
100.095095133372
100.079710730251
100.052887882767
100.053776693296
100.049512343409
100.050005500706
100.056152799575
100.086393621297
100.097787852001
100.094576372342
100.094261492562
100.098932687568
100.105573028526
100.087595129952
100.088185439299
100.089517904847
100.098436139641
100.093640055837
100.093638229146
100.098405849843
100.089560574029
100.088260154216
100.087723989162
100.086181652462
100.086665111912
100.089965564351
100.088214974183
100.048320945773
100.050398066562
100.051628047324
100.051395359888
100.050435223149
100.050475328703
100.052605346946
100.052997064934
100.056654923833
100.08600477501
100.081155009628
100.064810203507
100.059092251866
100.058931621564
100.056040544012
100.056992074065
100.051464055188
100.051638958933
100.053994761783
100.057707430067
100.057718185299
100.054014626461
100.051640051067
100.056799395036
100.055896412061
100.049577586567
100.050457750604
100.056858064194
100.057282648134
100.056403143197
100.056087443075
100.057000808851
100.056850003012
100.05597603721
100.057074757736
100.05715516134
100.057830602219
100.057992041104
100.05735762572
100.052641513784
100.053446585803
100.053440144439
100.052697011512
100.05163590717
100.052761206844
100.052380819123
100.055857037955
100.057013058978
100.057771953917
100.058076929145
100.057395572595
100.057316286937
100.057998969496
100.057881913904
100.055732037288
100.055482816964
100.055593704624
100.055781704204
100.055884648482
100.055774824598
100.057579685814
100.056697308513
100.056683917449
100.057281723544
100.056769092701
100.055848745091
100.057006804199
100.055476191397
100.055367238597
100.055562808366
100.055655102804
100.055454394575
100.055482325173
100.055735732253
100.053295672198
100.053336550811
100.053257900886
100.053362109599
100.053436586939
100.053534607291
100.053521614823
100.05351557334
100.055754252473
100.057548332014
100.057860045195
100.057663244928
100.055650979525
100.053348053299
100.05327578618
100.053158603684
100.053195209329
100.053204587719
100.053144018795
100.053188829931
100.051199947686
100.051334354665
100.051349248178
100.051221847962
100.051328868499
100.051483157241
100.051635385807
100.051646455839
100.051656392822
100.051654964731
100.053506417237
100.055811966705
100.056228494572
100.053729834305
100.051929840529
100.051467226381
100.051321652803
100.051235504254
100.051338766667
100.051334413272
100.051191395429
100.049192042912
100.049118788891
100.049433576509
100.049405374115
100.049157448373
100.04928379011
100.049649995473
100.049930150368
100.049943342332
100.049976743282
100.050052200089
100.049772474366
100.049416592942
100.049349250636
100.049580827573
100.049561796789
100.047274530402
100.046565798361
100.04638585252
100.046986127723
100.047034925584
100.046552811512
100.046669218837
100.047352831027
100.047839480276
100.047876956185
100.047977712819
100.048130120362
100.047690066416
100.047012353947
100.046959590378
100.047378554643
100.045065157016
100.044809370822
100.043311796498
100.042901938591
100.044224778585
100.044472560521
100.044247442318
100.044422152493
100.044928529589
100.045780588203
100.04559455496
100.045830593655
100.04641295546
100.045687461247
100.045178540004
100.044977127131
100.040473891868
100.03483242797
100.033533936007
100.036127913552
100.036118743698
100.03418013711
100.03440012054
100.039393391976
100.040423341639
100.037219147501
100.040133940206
100.041827489366
100.042303643855
100.04141239774
100.038679685538
100.041842003752
100.063717217817
100.06317707967
100.064340259286
100.066843224725
100.0745478758
100.064320802781
100.06399061553
100.073307641495
100.070965035113
100.063709532509
100.070476891686
100.082576383669
100.080842608455
100.069646766482
100.06099112629
100.059910981793
100.057205225225
100.062135320698
100.064670373147
100.069969109278
100.063817981448
100.056548352698
100.055908508905
100.052915034549
100.047640494808
100.046520241139
100.050537174922
100.053635129514
100.054317624659
100.057681504477
100.071177890515
100.064837410424
100.069048604824
100.062672390585
100.064155229569
100.058573961415
100.069845945135
100.06831948088
100.067089016304
100.072225021466
100.092179020273
100.129143627984
100.172771839566
100.223656375224
100.273983548236
100.328062526469
100.370465915603
100.403306758736
100.44190453747
100.466971203649
100.480277127665
100.489913937801
100.4584095868
100.462048273026
100.464976073747
100.46571047716
100.464279978807
100.4626128462
100.463912846616
100.471811828115
100.469436775502
100.471171965363
100.474367971548
100.475851334606
100.475953397214
100.474309958209
100.473399989818
100.45044854352
100.463558113435
100.477797914001
100.468634990354
100.460228464906
100.448493636569
100.448148712298
100.453490137296
100.447592801281
100.428126119506
100.434969603234
100.444470769174
100.446717925621
100.437512151751
100.438025382404
100.443941099149
100.453401825978
100.451143018452
100.465224658717
100.415968210582
100.428137356107
100.432751292951
100.433254880057
100.42936358361
100.416530342096
100.421005154102
100.423183452642
100.416704958633
100.412258653776
100.416098301751
100.419272518285
100.419145865437
100.414439660732
100.405825740443
100.410465303458
100.420375848202
100.420163515033
100.464488067625
100.461921193557
100.406299510712
100.410999237433
100.408239744658
100.401935056857
100.408997441136
100.399751322533
100.394852744278
100.411203412498
100.41255396892
100.409655851111
100.410894638914
100.408509037622
100.416990538208
100.410182602437
100.404401065308
100.415579068726
100.43058504312
100.455628733037
100.452052599614
100.461590787109
100.461992958468
100.462587236382
100.463582039825
100.466762438871
100.468292503018
100.471066415839
100.467301741161
100.46808815793
100.470429333556
100.472448406087
100.465846489837
100.474344771872
100.45803720276
100.445631917677
100.44478513318
100.457895441394
100.452083179632
100.444508104248
100.440389198118
100.429504488831
100.422929070855
100.444319512381
100.46106390741
100.461746195671
100.461563814079
100.416036342978
100.415060262782
100.413754169992
100.407830112454
100.401321663505
100.407646478621
100.405691132274
100.39857811217
100.401749212199
100.405353250807
100.401429440034
100.403840242933
100.401725287317
100.403665815755
100.403196867483
100.398441216924
100.402495995038
100.40134097244
100.404500226957
100.400216887967
100.39686313443
100.405407496537
100.410250222296
100.419953850062
100.430774641098
100.433083363636
100.429042839205
100.422240197832
100.427068320158
100.460550710697
100.489485746679
100.474659493343
100.495244906742
100.511051076653
100.474242443172
100.451310369705
100.44790162842
100.461899594862
100.468012965699
100.469670102132
100.503277438733
100.493246318742
100.496599847864
100.479556904359
100.486828700738
100.47664429211
100.474830401223
100.479313105793
100.475097322254
100.486005010669
100.467670928138
100.481051049999
100.47793266957
100.480143826809
100.483830896408
100.493342060524
100.503207080661
100.505563511648
100.489932925094
100.488706471038
100.490789844279
100.49495935773
100.481399306483
100.453595968207
100.422183406148
100.423215950409
100.431654316147
100.437428402869
100.435944345299
100.427216117557
100.41660674127
100.40781027834
100.40966034487
100.394489974508
100.389538021355
100.402304595554
100.405113759131
100.415600862622
100.417542214903
100.406638347111
100.398208543571
100.414272210019
100.421141279903
100.419059773024
100.417786629932
100.412876539333
100.457416187902
100.457676380282
100.457353171726
100.414833449701
100.422170670749
100.420577953999
100.420937243189
100.418320297173
100.415896833629
100.427256961469
100.448186158951
100.455855569538
100.455126092565
100.409273235089
100.409149620031
100.394226387511
100.398601138313
100.411443594909
100.414913230419
100.408219582847
100.393597803788
100.398021491884
100.40246658605
100.415317968139
100.420415611859
100.432415276062
100.46294483096
100.498130955354
100.496581589633
100.480894300095
100.483666823188
100.484544788549
100.496445705754
100.501565263565
100.48679975999
100.487413363477
100.479848223908
100.509738529456
100.506592995786
100.507810688155
100.501654769474
100.487214976646
100.488480926538
100.501859168882
100.498936899123
100.49433591914
100.494546415574
100.497603863132
100.49630993647
100.497742433815
100.478655914386
100.48761900318
100.464249835294
100.450860496117
100.44956736435
100.452658588591
100.465785380697
100.445064549161
100.449414310567
100.446677516716
100.443951645416
100.440374088645
100.438171170326
100.466882346053
100.467001497355
100.466385595834
100.463041769937
100.457973922825
100.465243313993
100.467837363122
100.467073164431
100.466608411542
100.466629661843
100.465262158838
100.466188645735
100.464897390992
100.466736458033
100.466984085244
100.467014735182
100.467043961341
100.467181052583
100.467109781035
100.467111941762
100.467491972573
100.467321876012
100.467632589061
100.46589476601
100.467537602148
100.467858420982
100.467472499049
100.46783793376
100.467655403863
100.467504298463
100.467553696993
100.467571459393
100.467519889908
100.467065422573
100.466891189639
100.466624065344
100.466353398367
100.466245193748
100.466092764803
100.46614151956
100.466098685083
100.46605134238
100.466019526271
100.465982640992
100.465969736988
100.465781829922
100.465559852025
100.465251814099
100.465248695957
100.464861971793
100.465015037674
100.464261340933
100.464674637852
100.464041881903
100.463226599154
100.46284390426
100.461766441569
100.463242388668
100.464885848363
100.465188458163
100.465340362903
100.466959483737
100.468671719765
100.467702191489
100.469347605385
100.468741225675
100.468869798472
100.469010706111
100.469041433561
100.468714828079
100.468859428522
100.468499125487
100.469068200851
100.469196023692
100.471052563802
100.46877841325
100.469801009525
100.469967373001
100.470021397356
100.470037345987
100.467607411718
100.469855302383
100.468162702266
100.467962373478
100.468701243579
100.469871790017
100.470327705944
100.470850647968
100.471144519306
100.468802436488
100.468496325504
100.466588938868
100.465654552081
100.465371273294
100.46676321524
100.467294372409
100.470719616752
100.470828304007
100.470267392289
100.471902314451
100.469196655494
100.469000910349
100.470310795542
100.470003918977
100.468832899378
100.468536885153
100.469106149646
100.468916680258
100.468285083325
100.468776304869
100.468142364609
100.468571410763
100.468118630172
100.467101550958
100.467925653035
100.467873625857
100.465742095189
100.466188414066
100.46421154016
100.463968588997
100.465446540976
100.463326345171
100.464374371352
100.46395173542
100.465556806508
100.466267455966
100.466706489225
100.46769037904
100.467464051469
100.468662169815
100.467805248801
100.468534512895
100.46873922765
100.470925136355
100.467883471461
100.469003333603
100.469562268082
100.470054512504
100.467179636195
100.467288677686
100.468471757336
100.466895452355
100.467707390572
100.465852941586
100.463274466674
100.457977116503
100.463431514721
100.464199202619
100.464375827534
100.464412712619
100.459188607966
100.461707294945
100.463296153196
100.466896896967
100.46553858937
100.467170859325
100.466829189218
100.464291043
100.46650064283
100.464622239836
100.462675018028
100.464768355754
100.462293947825
100.461553930701
100.463524747612
100.461483368407
100.460703231995
100.459812386621
100.460165996468
100.459851605317
100.461944526263
100.464288969802
100.461291079624
100.464326768103
100.461951267358
100.462569884318
100.463174833836
100.464399735611
100.464674949243
100.4640166734
100.463437274874
100.464414712262
100.464745651698
100.46463531943
100.46507571601
100.465292594671
100.465241531019
100.465653356177
100.46559823897
100.465444585023
100.465402738579
100.46510110882
100.46512109697
100.464779105832
100.464688820013
100.463768746003
100.464173780132
100.464742954109
100.463858602449
100.462180460764
100.462342683653
100.463343304592
100.46259368526
100.460667668389
100.461831617641
100.463665877067
100.46456726371
100.462829677444
100.45990262168
100.461747380688
100.464424007882
100.463019975976
100.461676063969
100.459587005052
100.46239008851
100.463855591462
100.464509530128
100.465333652167
100.466275530799
100.46588728637
100.466080160744
100.466071776471
100.465954456102
100.465696794232
100.465547306262
100.46590672354
100.466161199814
100.466579272178
100.466679022132
100.467084020171
100.46715902042
100.467239649528
100.467273753777
100.467202287383
100.467667948022
100.467257765464
100.467075116812
100.467055597477
100.467038407762
100.467127882063
100.466741863344
100.466743559571
100.466365999466
100.466208604117
100.466114468401
100.466055545055
100.465842551616
100.465836038627
100.465788729009
100.465635282598
100.465759068005
100.465671064432
100.465675454762
100.465730993521
100.464584658164
100.465241633793
100.466267178832
100.465692187421
100.466708928088
100.46562149917
100.464636510498
100.464663313927
100.464693289197
100.465732500398
100.465792521569
100.465859912629
100.46631512442
100.466637943399
100.467005975175
100.466839672964
100.46678908433
100.466979746921
100.466836011022
100.466772338016
100.466539329942
100.466969363665
100.466807190268
100.466557964371
100.466560191952
100.466280945576
100.466125866104
100.466084046154
100.465920373962
100.465771822052
100.465821870176
100.46568164424
100.465467717128
100.465682546375
100.465694589016
100.465755881657
100.465628840143
100.465685953478
100.465386279703
100.465361921209
100.465125766596
100.464821228728
100.464758634737
100.464437397363
100.463855002541
100.463230535456
100.464261988803
100.464519705319
100.463166548358
100.464682427317
100.462257469852
100.461448170152
100.456226559038
100.451787324545
100.455347241664
100.455116078038
100.454614008935
100.45340097061
100.45306086231
100.455529400138
100.457244962219
100.457208509483
100.459647018143
100.459749203992
100.4621105631
100.460583335332
100.459734516172
100.449540095544
100.450212867065
100.450942649077
100.451866664225
100.453846698657
100.456888990665
100.461990355718
100.457993005943
100.45272112578
100.437524229634
100.421798277232
100.444682225161
100.439340879934
100.435194922231
100.43410806844
100.435365141723
100.435889569914
100.426213102621
100.439872821917
100.452781206776
100.446927498585
100.454630129151
100.448734768102
100.445184296436
100.451987581944
100.445537353403
100.443965834888
100.449693652999
100.442209416816
100.444068803514
100.438776894477
100.446592930171
100.441897215709
100.448559045995
100.449531908137
100.453369278482
100.457932156494
100.46137562497
100.465046044485
100.464081582396
100.464390966153
100.464556835628
100.46523780823
100.46292061627
100.463356411018
100.465134505688
100.465100609256
100.463691356532
100.46389292122
100.462434288949
100.462974754183
100.456087796348
100.444394516267
100.432277053919
100.423434980113
100.416255260343
100.425392756246
100.420650511335
100.424158591916
100.418168834075
100.415684900802
100.414133375201
100.414560433031
100.417707683466
100.417338360992
100.424174406594
100.39657152755
100.38468597207
100.387110521342
100.393579331709
100.413336896013
100.414236483023
100.396926007817
100.381862821079
100.37995077938
100.350057668633
100.351618066275
100.354231816891
100.36551609376
100.355588904426
100.336665188457
100.303503726561
100.286393725072
100.323196258919
100.312112072643
100.310918429228
100.320229836955
100.350265783378
100.358088489054
100.347009759883
100.374331631317
100.395325695365
100.394940617087
100.393308631094
100.392762152329
100.391426666616
100.381905231895
100.405738416544
100.388126966873
100.401112513351
100.397213314419
100.402832891261
100.410906812722
100.423548322629
100.447371662687
100.453813330093
100.461839759966
100.464638740281
100.462250231691
100.456796247338
100.453563450481
100.431573367856
100.413755349009
100.379709599533
100.356844692361
100.34293947055
100.335161564488
100.334621995487
100.35248317584
100.342058540256
100.345929731009
100.334784250556
100.337512128426
100.336523493868
100.336212888095
100.341639694153
100.300664973831
100.289484077618
100.299263709741
100.329717874535
100.373206090703
100.402396794259
100.425827098475
100.444335723208
100.453484467458
100.458644794019
100.460573795291
100.460862420156
100.468416562766
100.502696473347
100.485872833273
100.482346503061
100.48217029826
100.482610064647
100.483465097199
100.487927857161
100.506217661248
100.493411210758
100.483411845111
100.479807632629
100.452438177253
100.435130495501
100.43453740333
100.439327106803
100.455749668395
100.443923634502
100.438648444448
100.433644656302
100.424050944725
100.425361188457
100.435491124678
100.437170292669
100.428729963237
100.430598640616
100.440468390373
100.444525393795
100.446461505038
100.457672275201
100.424887613618
100.422066991058
100.418358094891
100.410508573266
100.41129663449
100.42187008432
100.413586474217
100.412484316771
100.405799822367
100.400533306285
100.407258579871
100.413099412197
100.461125053099
100.465698212492
100.463204107575
100.467085367252
100.463985149613
100.470795524172
100.470032759552
100.473283498132
100.470924146564
100.470435435464
100.469784357923
100.47050116037
100.469596732821
100.470101387538
100.469396506939
100.46985233474
100.470321923082
100.470821727114
100.468715605724
100.469840875415
100.468361394771
100.467044893244
100.466753376095
100.466016777801
100.465627741557
100.465052237224
100.463502724797
100.462026032075
100.461303125101
100.464022027726
100.464462411664
100.465222022616
100.464981078238
100.465878439014
100.466073423029
100.469114233114
100.467989721859
100.467035783645
100.465488828139
100.465878417502
100.466074306577
100.465778946215
100.467250777232
100.469092973902
100.471540674217
100.467556395442
100.46620988299
100.465199031997
100.464196143191
100.461234043088
100.46203212477
100.461556367619
100.462339501393
100.463079510034
100.463987628069
100.463500258346
100.462879316923
100.462620621158
100.462807151721
100.462666736231
100.464470081685
100.463954929239
100.463642715378
100.463703762123
100.464222988599
100.464807738141
100.465360304026
100.464413470119
100.465299179025
100.465635360847
100.466062371079
100.466511077414
100.466238010791
100.466451045717
100.46677754936
100.466759780053
100.467218368269
100.467038000516
100.466821427706
100.46649238357
100.466093174735
100.467889304445
100.467109081297
100.466620370506
100.465486829937
100.465028198129
100.465095893581
100.465449701911
100.466434030922
100.469634691563
100.467693906003
100.466744737378
100.466388063907
100.466851950259
100.468179718409
100.468250451721
100.468991999143
100.47009273711
100.471883793235
100.473518548479
100.473805893535
100.472249352839
100.469843084774
100.472595519162
100.474153839149
100.473028233653
100.474134148662
100.472824610724
100.47253253863
100.471616509523
100.470905897861
100.469976916827
100.469525980614
100.470287061721
100.468651912826
100.46819012832
100.468702890243
100.469034331348
100.468456195492
100.468020801343
100.468311072441
100.468254664796
100.468128181271
100.468452820326
100.467363449631
100.467545923408
100.466945746581
100.467291579821
100.46762091247
100.468299162009
100.468294635682
100.469129553115
100.469942220163
100.471683121374
100.470950439522
100.470759496641
100.469975477942
100.469953028838
100.4701128237
100.470704905887
100.470745342112
100.470457799309
100.471519672355
100.471177934787
100.470704054493
100.471244316097
100.469679541756
100.468927579703
100.468524046496
100.468086769653
100.46781977518
100.468394320171
100.468354721371
100.468605383254
100.46871490139
100.468969371224
100.468727334885
100.468754982758
100.469917678364
100.470459975208
100.470499806898
100.471953628908
100.472558562667
100.473262661233
100.473798937284
100.474344875975
100.474054718191
100.473460121739
100.472703449866
100.470651934646
100.468255917369
100.470622760046
100.47023074743
100.471630727719
100.47189348454
100.472771487285
100.473877501045
100.474823259684
100.47444471367
100.473597861748
100.473077469729
100.47192604382
100.47216196575
100.471278455229
100.471223326395
100.471301298772
100.470011583878
100.470106030803
100.469070790251
100.469545766174
100.4690818637
100.469499648259
100.468871268667
100.469067860594
100.468693362125
100.468807470346
100.468685653433
100.469018879474
100.469032888099
100.470206018465
100.46969838485
100.470424293708
100.469894838188
100.470333750348
100.470608109401
100.470682271544
100.470891335376
100.470772876656
100.470226648097
100.470753517475
100.470251361886
100.470099360808
100.470489789692
100.470520370409
100.470635174798
100.470679392935
100.470433464363
100.47026488621
100.470100665583
100.469420823973
100.46949737952
100.468451309488
100.469610896056
100.469188258378
100.469178094024
100.468624941607
100.468430711735
100.467627667006
100.467019901318
100.466630830035
100.465996714108
100.465760753366
100.465300638222
100.464404720916
100.46338028956
100.462988633711
100.465473885032
100.466032433632
100.466582306302
100.466008725905
100.465606355258
100.46515567283
100.465391182438
100.465664277282
100.465850884178
100.466016969711
100.466166511463
100.466091928373
100.465928228698
100.465732483754
100.465592183751
100.465471467389
100.465867362822
100.465919962019
100.465885814697
100.466100986725
100.466305626644
100.466576722119
100.466418708091
100.466098197347
100.465908248618
100.465922422927
100.466405109565
100.466785625742
100.467046938618
100.467067715926
100.466553584761
100.467630182651
100.468220134716
100.469475347688
100.469315447263
100.467866535643
100.467144269327
100.466564794596
100.465857219261
100.464926171271
100.466476366139
100.467722004755
100.467379299434
100.467173421268
100.466471297774
100.465922974485
100.465126362225
100.464661375521
100.464414396456
100.464695981857
100.465258748464
100.465559007
100.465750107449
100.465867654854
100.465949499933
100.465921164553
100.465813551069
100.465599810225
100.465267363
100.464898434429
100.464512844719
100.464335778416
100.463875894827
100.464137036104
100.46393928164
100.463784466001
100.464153211552
100.464534533534
100.465419243903
100.465594515467
100.465697813473
100.465775555797
100.465832322941
100.465879130456
100.465941865347
100.465837240979
100.465940172318
100.465876540857
100.465803593289
100.4657571423
100.465655331169
100.465558509844
100.465663757115
100.465814688728
100.465788256649
100.465528083583
100.465719006511
100.46556226903
100.465435175129
100.465398494527
100.465433299408
100.465571593428
100.465624814354
100.465649994085
100.465753352092
100.465755330705
100.465714936046
100.465639786985
100.465536865116
100.465505164807
100.465400959717
100.465729360501
100.465041657904
100.465267285511
100.46520718635
100.465261616982
100.465321004436
100.465362949503
100.465528635714
100.465510442382
100.465458927332
100.465382915588
100.465369339571
100.465329040329
100.465000828025
100.465191453438
100.465199045103
100.46530470192
100.46529496908
100.465434638039
100.465411309762
100.46553288685
100.465555941646
100.465616923604
100.465641909479
100.465809729099
100.465783008336
100.465829290402
100.465837537187
100.46580997343
100.465974642368
100.466094719739
100.466129319192
100.466065828896
100.466126603572
100.466051428547
100.466009187252
100.465972571067
100.465939185921
100.466012360593
100.466147464193
100.466204245298
100.466210256421
100.466040301594
100.466030919635
100.465987324829
100.46591266752
100.465777724071
100.465622415087
100.465596819189
100.465704989467
100.46582649454
100.465798770265
100.465656198567
100.465535117651
100.464845496296
100.465079332157
100.464230884492
100.463871845163
100.463307645486
100.462423144097
100.463372200529
100.463675637458
100.464530659496
100.46438704597
100.46449999706
100.464673771889
100.464561725463
100.464882953736
100.464742209151
100.464884079308
100.464953651227
100.465089088807
100.465147200557
100.465190851951
100.46525944033
100.465282359939
100.46542566868
100.465437368981
100.465478074855
100.465475730768
100.465604938722
100.465700284757
100.465710941034
100.465819936089
100.466023382525
100.465933644948
100.466011340565
100.466341873289
100.466449800255
100.466484279974
100.466615972216
100.466391118887
100.466353487537
100.466295563205
100.466271519825
100.466301940843
100.466172973198
100.466076037381
100.465918528893
100.465673977535
100.46534773633
100.465851752602
100.466261040883
100.465970468182
100.465071072695
100.464549758521
100.46430654983
100.46409181348
100.464563334338
100.466061390445
100.467275660638
100.468802291568
100.468670880162
100.474628197164
100.475503952356
100.496628181809
100.491192084502
100.455747980645
100.420875255154
100.380740091796
100.358687999798
100.373786305069
100.371080247224
100.369127217534
100.369435427048
100.370305524674
100.371199456212
100.372318355509
100.373775218729
100.375404688674
100.376914518227
100.378144193423
100.379044493611
100.379617157962
100.378482040045
100.377125376426
100.375565800161
100.373895524927
100.372243503117
100.370710692498
100.369381570329
100.36828149496
100.367394883209
100.366669692272
100.366074148864
100.365637067111
100.365454562395
100.365604932441
100.366200683002
100.367451881309
100.369268105134
100.37120566694
100.372510010926
100.372808170784
100.372727145011
100.372824107616
100.372879558472
100.372888157174
100.372930507595
100.372977310033
100.373025535558
100.373071017322
100.373342647881
100.373442787507
100.373517161159
100.373363738434
100.373250094399
100.373232007938
100.373056629943
100.372961222231
100.372931827745
100.372864046332
100.372895400807
100.372824729644
100.372785809382
100.372777044846
100.372743519072
100.372709524831
100.372629621153
100.372599765518
100.372668933108
100.372684419993
100.372709220089
100.372734041081
100.372779809428
100.372733213426
100.372908976843
100.372989133511
100.373208811974
100.373115227938
100.373039340021
100.372798474393
100.372790207728
100.372748525242
100.372931453822
100.372812039981
100.372763230485
100.372635238544
100.372656457492
100.372616408672
100.372606397269
100.372552942208
100.372579313214
100.372513239038
100.372436094718
100.372351036972
100.37216745874
100.372367982258
100.372467827883
100.372478104027
100.372523012907
100.372516348871
100.372505871053
100.372548775393
100.372593451033
100.372593040391
100.372693360627
100.37269508158
100.372681172508
100.37264236419
100.372442405009
100.37256948575
100.372437437203
100.372574886973
100.372591410776
100.372514004594
100.372524667625
100.372508863441
100.37248427505
100.372461118978
100.372469615395
100.372418417133
100.37240542754
100.372296346102
100.37196805583
100.372312535098
100.372396020579
100.372390275565
100.372419978412
100.372416917759
100.372434083357
100.372446995952
100.372443020409
100.372399028818
100.372432912487
100.372341179014
100.372377022948
100.372437722935