/*--------------------------------*- C++ -*----------------------------------*\
| =========                 |                                                 |
| \\      /  F ield         | OpenFOAM: The Open Source CFD Toolbox           |
|  \\    /   O peration     | Version:  v1612+                                |
|   \\  /    A nd           | Web:      www.OpenFOAM.com                      |
|    \\/     M anipulation  |                                                 |
\*---------------------------------------------------------------------------*/
FoamFile
{
    version     2.0;
    format      ascii;
    class       volScalarField;
    location    "2";
    object      p;
}
// * * * * * * * * * * * * * * * * * * * * * * * * * * * * * * * * * * * * * //

dimensions      [0 2 -2 0 0 0 0];

internalField   nonuniform List<scalar> 
79506
(
100.124814427458
100.12689985392
100.123132464651
100.127675832427
100.134631192108
100.134870990741
100.132930525888
100.133537495121
100.133926908189
100.134100431297
100.134495138594
100.134116938553
100.135797072317
100.135236182467
100.137364509593
100.137390191789
100.135328519813
100.132448519506
100.129237004178
100.128855973264
100.128957623082
100.130719367963
100.128306177608
100.129501766579
100.131443596914
100.136278726996
100.130880787296
100.129868455493
100.129112977987
100.128758517328
100.128851734706
100.128916454124
100.129744916602
100.13070373987
100.136188790613
100.13120343074
100.129219531588
100.127962582194
100.130343423247
100.128550481998
100.128487338316
100.128875245381
100.132099480129
100.135021437035
100.13697310829
100.136847559892
100.130199765434
100.129007020252
100.125619277281
100.1261269519
100.126655504942
100.126495710189
100.126588119819
100.126595832713
100.124354025703
100.127581963182
100.131273381174
100.129790132033
100.126405805353
100.125463433203
100.124438510344
100.125284553546
100.125367965333
100.124705406391
100.125585855254
100.126593221705
100.130096329745
100.131569617201
100.127848388204
100.124634095821
100.126932536151
100.126954917552
100.126804444933
100.126928002184
100.12629636924
100.125792866478
100.12931917512
100.130568320793
100.128154232683
100.131471775513
100.13464723881
100.136444483034
100.13445849003
100.133898080004
100.134967850866
100.133116253385
100.13063445647
100.126443864541
100.13189564545
100.120311166694
100.109095962486
100.115275646606
100.116890680693
100.126151233038
100.12030793431
100.121454339753
100.124176158312
100.12349414359
100.122996581921
100.123024386882
100.122991678357
100.127571606549
100.128374823062
100.123842542512
100.124204411244
100.121671632285
100.120486177081
100.121380747143
100.12139288643
100.120517888013
100.121782417597
100.124417110353
100.124122183668
100.128658027162
100.127868059827
100.123276434716
100.123383482714
100.12337054981
100.123812884927
100.124473245669
100.121645086536
100.120427699966
100.126599365226
100.12707722611
100.123631211984
100.127479163099
100.133999464134
100.139215697336
100.132661914545
100.132127967747
100.136677551347
100.15214199831
100.121028197916
100.121538885754
100.106508764863
100.079856975765
100.080712691554
100.07640205333
100.077110284885
100.08330465855
100.113534165747
100.123799073341
100.120902754989
100.120663045899
100.124812549062
100.131028087816
100.114307754975
100.11486590393
100.11628449286
100.125624473137
100.120677746237
100.12070190462
100.125743097292
100.11629219438
100.114998088917
100.114498805959
100.113086502792
100.113812879709
100.117341886599
100.115152177144
100.075235192156
100.077290277322
100.078585748645
100.078336219788
100.07726097718
100.077312393938
100.079211870054
100.079640248665
100.083752007473
100.112886234442
100.10803336195
100.091717380846
100.085938244723
100.085866078602
100.083180577928
100.083976870481
100.078477923683
100.078584516007
100.080728256748
100.084460404304
100.084369660074
100.080562081531
100.078425026614
100.083780138674
100.082996587888
100.076625456838
100.077233201327
100.083753758584
100.084210633922
100.083350050441
100.083044832059
100.083917428649
100.083785274546
100.083052707188
100.084284735207
100.084369397971
100.084859239624
100.084977344661
100.084279760642
100.079483737296
100.080289739078
100.080259266396
100.079445047167
100.078441489877
100.079391437671
100.078939562318
100.082868778201
100.084148373069
100.084778818114
100.08506546568
100.084371475784
100.084317119128
100.085032962543
100.084946325176
100.082811299932
100.082607260432
100.082697254834
100.082783662456
100.082856621339
100.082711265674
100.084538589847
100.083625735326
100.08361569813
100.084207619436
100.083759807004
100.082960330182
100.084175895744
100.082495131869
100.082403149919
100.082561349574
100.082662065145
100.082473982433
100.082523361234
100.082827696177
100.080393796731
100.080406871857
100.080353519414
100.080428691458
100.080411997556
100.080459197575
100.080389690191
100.080352020534
100.082668557032
100.084502423312
100.084832243552
100.084674267655
100.082605697214
100.080230589663
100.080215407106
100.080113731054
100.080159580784
100.08020184084
100.080179655581
100.080245760498
100.078356750858
100.078473978936
100.078489871235
100.078435992215
100.078496490194
100.078480606198
100.078503151388
100.078433540615
100.078399096972
100.078400387111
100.080355135352
100.082729735915
100.083136907392
100.080535115312
100.078529558684
100.078305248373
100.078284421062
100.078221901366
100.078284938693
100.078322609148
100.078291454364
100.07658688021
100.076656810049
100.076757350959
100.076763625999
100.076707081997
100.076765543627
100.07675083655
100.076760365614
100.076693714263
100.076662829138
100.076663536865
100.076588783685
100.076573396341
100.076537816373
100.076591502655
100.076612059474
100.074870038935
100.074839535869
100.07490638508
100.075001070957
100.074984447391
100.074937881001
100.075008978579
100.074993772165
100.075002614092
100.074951170506
100.074926823633
100.074924215329
100.074860584938
100.074852426662
100.074831501007
100.07486729932
100.073107380515
100.073172549783
100.07301952678
100.073001073128
100.07317360061
100.07314480344
100.073102294529
100.073190994165
100.073182390317
100.073200302991
100.073167711236
100.073153338567
100.07314898173
100.073094350191
100.073088369332
100.073074784696
100.071293414207
100.071282522203
100.071376765711
100.071055784532
100.070915638709
100.071174065102
100.071229611947
100.071240334831
100.071349597122
100.071354368323
100.071385848631
100.071376123187
100.071375083235
100.071373416599
100.071330773679
100.071317963898
100.069552458457
100.069495102161
100.06941116627
100.069365861573
100.0695312353
100.069412581478
100.069169012798
100.069324333768
100.069384433657
100.069506434078
100.069536167853
100.069587854904
100.069603834739
100.069618827307
100.069620603267
100.069580958739
100.067845345129
100.067788291095
100.067683439512
100.067561619041
100.067297865091
100.06769411848
100.067717355193
100.06730452831
100.067479127177
100.067536523504
100.067672633446
100.06773407653
100.067819942836
100.067869246982
100.067897241527
100.06789627168
100.066203090801
100.066119797248
100.06601618065
100.06583387264
100.065701188181
100.065353067774
100.065215713819
100.065317782745
100.065459824243
100.065586195393
100.065664133947
100.065842177553
100.065954698831
100.066094286197
100.0661862489
100.06622212953
100.064600456149
100.064528650759
100.064381470677
100.064201667389
100.06389471471
100.063695130449
100.063398961976
100.062998893263
100.063019583994
100.063332744599
100.063496680244
100.063710207756
100.063987860106
100.064173336146
100.064399211068
100.064561754344
100.062967850381
100.063004042728
100.062798555905
100.06255391894
100.062233776488
100.061729769294
100.061326925059
100.060986816464
100.060424104217
100.060344581507
100.060758972917
100.061086301445
100.061571570568
100.062001173469
100.062350950257
100.062670816181
100.060678884304
100.061237376066
100.061271009545
100.060780031625
100.060448918101
100.059846401786
100.059024042253
100.058325186837
100.057764890431
100.056665782906
100.056641629916
100.057641402944
100.058132734259
100.058904836076
100.059636533496
100.060276653078
100.057466378951
100.05793600911
100.058986147005
100.059014496893
100.057908366064
100.05760328964
100.056679677137
100.055216681276
100.053716979804
100.052924221033
100.050969771192
100.05099359488
100.052971207231
100.053629330871
100.055154035899
100.056508234736
100.051124434503
100.052230294952
100.0523906636
100.055049452205
100.05508829114
100.052442100201
100.052400605369
100.051308742013
100.048801991031
100.045350060172
100.044734884175
100.041598317984
100.041381793006
100.04455820601
100.045521876962
100.048717189106
100.038968289331
100.042612905791
100.043826691885
100.04255737317
100.048543414665
100.048574595863
100.042746021701
100.043892113839
100.0426421147
100.039065482055
100.032620443472
100.032070691533
100.027588905202
100.027189549764
100.031643935503
100.032524988773
100.055206452417
100.058836517455
100.06382054496
100.072344393427
100.065824309497
100.070414137527
100.070633522633
100.065826785015
100.072263263597
100.063575795316
100.058668233836
100.055223410296
100.04268913041
100.080492665125
100.101743959533
100.102259945917
100.081389225337
100.041161913396
100.041517444554
100.144685425988
100.230869540552
100.16877471696
100.168857036839
100.163443292248
100.152493584696
100.143007912079
100.188773005035
100.226729501405
100.136085089804
100.144459493108
100.205913453517
100.162066770634
100.162783906829
100.153525083786
100.153589540166
100.163089258724
100.161821794431
100.20581409104
100.144224717013
100.135771854089
100.188382357792
100.14298459129
100.15183418702
100.163052482057
100.25469294056
100.266658638512
100.266631797659
100.254564105451
100.264299059543
100.270569055596
100.283446228533
100.318737309627
100.332707996516
100.233747050683
100.271712812354
100.364756233978
100.306925772713
100.296479158588
100.287576782099
100.309526542238
100.255622562563
100.255909861978
100.310134719455
100.288266384167
100.296546169562
100.306920399786
100.332631537976
100.31839902657
100.282993540732
100.270175749599
100.264266931186
100.3440243512
100.381083869602
100.350919330589
100.35119672489
100.381572778391
100.366056703088
100.344241198952
100.438603058654
100.464613578845
100.436060270715
100.455519703378
100.459744893174
100.418506504925
100.369597442673
100.410647042206
100.359621442444
100.450401649576
100.47459302166
100.457410398762
100.46882413036
100.492767301422
100.455297496354
100.397989792108
100.420392090749
100.448650778974
100.402619557556
100.425282748193
100.427641065439
100.389647406744
100.42468330978
100.404576295571
100.338761846377
100.339424075307
100.406371697253
100.427424623338
100.391187099485
100.428703633608
100.42598994106
100.402314535004
100.447465224199
100.420185943578
100.397496805091
100.410205860583
100.369020394975
100.365615841156
100.418139372575
100.45534393132
100.435596333627
100.448481551483
100.473337516426
100.473930982249
100.448889769165
100.422551108596
100.422192070524
100.481048846379
100.502343417821
100.497550424312
100.498416019162
100.498853332283
100.490287375224
100.477280911169
100.507263684385
100.510386084768
100.508599396521
100.504221084325
100.500722601987
100.495992783663
100.486480305796
100.486979658659
100.490936827597
100.500732622576
100.485592066711
100.504447645628
100.503003570318
100.501147754174
100.499044955507
100.501299992172
100.501397948417
100.500377039396
100.499647360181
100.494173655628
100.478787215836
100.488752572729
100.494530880382
100.471898256495
100.47284797764
100.465665422093
100.4737887685
100.452520035188
100.454381719235
100.475977699107
100.468967423761
100.473545125154
100.472796076118
100.493859855343
100.488940607915
100.478482184837
100.454843204681
100.468480527105
100.456967072944
100.459535547349
100.4869267531
100.486509272932
100.490234156364
100.497972698231
100.507500580381
100.507726631325
100.514696415115
100.515356788391
100.508677273811
100.507631075988
100.506329302314
100.511971920446
100.509633652762
100.509500570027
100.512397101977
100.515036237751
100.508212538742
100.510891990743
100.513305767638
100.510775928085
100.513225467858
100.512958432427
100.507748049818
100.509266213803
100.509207646296
100.506278553553
100.501647559939
100.501419109535
100.499614175952
100.499850262251
100.494677789291
100.504948216496
100.503865629
100.501065388987
100.499519524452
100.500636934738
100.501860067917
100.500842669487
100.500965753106
100.500937354633
100.500648370221
100.500498224074
100.500742868603
100.500728736495
100.500327905818
100.500146034679
100.500291920209
100.500127370095
100.499005113204
100.498415289429
100.501128667194
100.497533457782
100.499318546249
100.498025961504
100.491237376948
100.492754936528
100.487255128521
100.494127225403
100.494777951034
100.482131237535
100.483205039808
100.496672327781
100.49907767813
100.492123379494
100.495154261035
100.493649845322
100.498042465476
100.49787731812
100.497707958802
100.502017393352
100.498499789356
100.500080848413
100.500191491537
100.49962018876
100.490880246972
100.495163405093
100.500615136763
100.501621061989
100.504871825604
100.510355655009
100.510132198312
100.510641620633
100.517283230602
100.51300837889
100.51440542724
100.512450007767
100.512620642806
100.512446846749
100.511643515459
100.51313539154
100.514001410899
100.513827116603
100.510511759962
100.510582908026
100.509723626998
100.509356134326
100.510614870119
100.509868679864
100.509692501366
100.504350609106
100.505433047243
100.503981810121
100.504653042933
100.505714531107
100.503378619278
100.501224508974
100.501572709696
100.503949367154
100.505093687718
100.508809045164
100.50721270499
100.504786623245
100.502250641611
100.500207450599
100.498586519974
100.499488574997
100.502149428668
100.506777826665
100.514033746642
100.526428193159
100.544366899913
100.583197122293
100.590320138111
100.521943881068
100.47362099141
100.431740446479
100.384205835707
100.357152219205
100.375327421483
100.372780039588
100.370758260782
100.371176902127
100.372081601326
100.372956474455
100.374056844771
100.37555241718
100.377323437486
100.379129417752
100.380736604716
100.38196056811
100.382653562021
100.381215488194
100.37956933084
100.377841525165
100.376114341278
100.37446523384
100.372984871515
100.371714994632
100.370654474792
100.369756632153
100.368986229704
100.368313279991
100.367717655528
100.367222223376
100.366911134586
100.366893480546
100.367279186225
100.368105522536
100.369313956744
100.370663776662
100.37188510995
100.372505068095
100.372654803015
100.372726055689
100.372830653053
100.372862521306
100.372891280991
100.372933705507
100.372974308707
100.372981069485
100.373048325019
100.373058733159
100.373168110369
100.373283266034
100.373241570799
100.373145816271
100.373005470507
100.373014005004
100.373194159441
100.373000860163
100.373008781551
100.373027619831
100.372916361854
100.372810585559
100.372938538492
100.372813180065
100.372950438553
100.372961519646
100.372966874774
100.372844532097
100.372892360364
100.372859417039
100.372834241073
100.372794930131
100.372746811527
100.372751220302
100.372651350391
100.372490119737
100.372410421339
100.372417531852
100.372436418645
100.372539529769
100.372616518661
100.37270475697
100.372698271629
100.372721170771
100.372774977869
100.372840394036
100.372847966329
100.372884161355
100.372926775843
100.372975337533
100.373007040282
100.37304610168
100.373091675219
100.373037111497
100.373299894526
100.373355059233
100.373396382342
100.373432995817
100.373372955993
100.373262792048
100.373188523752
100.373057299365
100.372664453268
100.37216618734
100.372013261403
100.372196148411
100.372402075198
100.37283361801
100.372576269532
100.372317414336
100.372144133148
100.372345448822
100.372377289586
100.372713958634
100.372791641579
100.372644014516
100.372729798424
100.372726773873
100.372805191184
100.372743212767
100.372739534385
100.372815757888
100.372754797838
100.372739071559
100.372799507727
100.372855646583
100.372938153936
100.372956967221
100.373031871064
100.373081860741
100.373105993081
100.373180545539
100.373213987056
100.373438265543
100.373511707647
100.373580932195
100.37364512425
100.37362746024
100.373773353053
100.373408255545
100.373312373575
100.373014416289
100.373066611028
100.373264933295
100.373305689378
100.373534873708
100.373666780022
100.373802410083
100.373822842482
100.373792720963
100.373583861956
100.373340845036
100.373242112551
100.373357016136
100.373414153728
100.373605920981
100.373504174852
100.373478868885
100.373311645266
100.373004925664
100.372831929228
100.373005798493
100.373020416671
100.373131624153
100.373173398217
100.373249151099
100.373342123166
100.373418479702
100.373694628314
100.373850927195
100.373959677555
100.373985931737
100.373964316197
100.373685849022
100.373420233752
100.372934326863
100.372408077181
100.371950318124
100.372147589853
100.372353720412
100.372350234596
100.372213527101
100.371454655392
100.370804626313
100.370248999937
100.370452636023
100.370782771813
100.370666172528
100.370561701637
100.370829866758
100.371173471339
100.371309201971
100.371344815167
100.371048700214
100.371368131289
100.371090354743
100.371821993215
100.372707417856
100.37291407255
100.372832126232
100.372824434087
100.372889076445
100.372937969814
100.373011439438
100.373071717224
100.373083093971
100.373145842371
100.373209482596
100.373273920895
100.373292980563
100.373408941402
100.37353796937
100.37382283743
100.373983030123
100.374073853558
100.374057844744
100.373987334602
100.373770360416
100.37348063968
100.373032801207
100.372511596147
100.371951229702
100.371202847043
100.370807081403
100.370671208919
100.370499648619
100.370394810014
100.369625087489
100.369281578903
100.369114726797
100.368951576825
100.368890823896
100.369347239764
100.369481245464
100.369026628117
100.36934475395
100.369831932521
100.369899214365
100.370017333594
100.371164614378
100.371928729063
100.372692762084
100.372971673024
100.372964296235
100.372927227096
100.372991081465
100.373042615357
100.373117660601
100.373171103768
100.373219802587
100.373281382099
100.373314746867
100.373314128331
100.37346239173
100.373652544203
100.373939242516
100.374105183313
100.374244184296
100.374154905078
100.37415314146
100.374190265235
100.374301106748
100.374196270517
100.374046763188
100.373745959022
100.373417293009
100.373496677683
100.373793742065
100.374061601112
100.374226581509
100.374388488217
100.374318810614
100.374202972174
100.373884758731
100.373586915347
100.373557412994
100.373121781934
100.372623676287
100.372056445396
100.371311772759
100.37095138642
100.370564138904
100.370312752258
100.370241513492
100.369988274587
100.369720026593
100.369448974394
100.369763582196
100.370108929894
100.370387060132
100.370135862784
100.369767732041
100.369569090518
100.369129964642
100.369108940857
100.369253302023
100.369001021745
100.36848090576
100.368736089828
100.368852023371
100.368407001713
100.368463069731
100.367921724402
100.367496415424
100.367134425344
100.366924236483
100.367398707687
100.367788196348
100.368110407228
100.367714534238
100.367853243719
100.368058807756
100.367748635786
100.368423377099
100.366896214779
100.365398259968
100.36434078021
100.364368818662
100.36494350033
100.365867212788
100.367925741213
100.365489430743
100.364634091526
100.363830773012
100.360313545278
100.357473926095
100.362166484523
100.361331563517
100.361336261945
100.358929177255
100.360108258979
100.357556974123
100.359694178441
100.361270818166
100.36168889755
100.362840900239
100.364202380724
100.365394634263
100.366604075788
100.367481570735
100.366776180997
100.368664937909
100.365858956081
100.372783132747
100.371809890473
100.370436580003
100.368817645393
100.367003681692
100.36613878616
100.368768707668
100.37017278946
100.365540395504
100.362864488666
100.361820055894
100.351148912032
100.354860982337
100.35227627545
100.355896887975
100.357724711313
100.368377305505
100.370273637512
100.371984000631
100.372186165688
100.37229084441
100.372389952346
100.372437968949
100.372462295906
100.372483438174
100.372527068596
100.372588666098
100.372559942603
100.372704770439
100.37266959493
100.372574002381
100.372485741323
100.372436759087
100.372591539224
100.372482989819
100.37262422543
100.372621835804
100.372475182764
100.372533180004
100.372514536636
100.372480616616
100.372445187494
100.372428134075
100.372361132021
100.372224783934
100.372204594316
100.371794517693
100.371152215921
100.371980364346
100.372231752837
100.372259148847
100.37235433987
100.372372041417
100.37239340665
100.372410286072
100.372435438651
100.372473783999
100.372449222857
100.372510923125
100.372412853064
100.372452768567
100.372563600854
100.372579535189
100.372526447342
100.372448423203
100.372438461861
100.371993688941
100.371785643524
100.372139769416
100.372010422443
100.372362243757
100.37221857011
100.372355287909
100.372439322056
100.372383337638
100.372431829578
100.372457427922
100.372482683801
100.372430654838
100.372363859705
100.372394788317
100.372346845688
100.372341261645
100.372242468825
100.372203260026
100.371960549397
100.371229961996
100.372129757356
100.372224782415
100.372277580791
100.372350021188
100.372353299117
100.372398582201
100.372433567002
100.372429155443
100.372435754771
100.372384282364
100.372436447978
100.372326462564
100.372126533488
100.37174565797
100.371213242136
100.371902202552
100.371770047473
100.372319379433
100.372084768218
100.372345126845
100.372428774325
100.372398624553
100.372403517384
100.372459865473
100.372405603495
100.372354192781
100.372331097121
100.372325737003
100.372280287393
100.372225650162
100.372124811683
100.372059717314
100.370964362938
100.369564109734
100.371390640338
100.372150264858
100.372160076588
100.372249824943
100.372316576105
100.372318349633
100.3723462937
100.372411746595
100.372440904573
100.372412300767
100.372391129235
100.372401958898
100.372309822417
100.372104924161
100.372421536667
100.372440605457
100.372430205206
100.372414226285
100.372408105083
100.372281071192
100.372136197303
100.371610210007
100.372278755214
100.372197345817
100.372461794527
100.372394861073
100.37247478737
100.372472029108
100.372451176842
100.372381759335
100.372457043868
100.372344138571
100.372339464011
100.372302717583
100.372262932734
100.372170932263
100.372168530949
100.37152831038
100.370098379214
100.3719249423
100.372220067803
100.372227987861
100.372292842695
100.372349449245
100.372297643562
100.372456247897
100.37249397423
100.372334578714
100.372334722291
100.372293468829
100.372239293863
100.372169047646
100.372102528461
100.371721830332
100.370259824448
100.369299446956
100.371180122957
100.372037740936
100.3721748786
100.372242713819
100.372293003719
100.37237441767
100.372304414916
100.372503615527
100.372413593695
100.37252165573
100.372548465828
100.372484968363
100.372380273693
100.371857799671
100.371367995641
100.371963297754
100.372434857678
100.372448540592
100.372638695349
100.372589524343
100.372617983473
100.372594614966
100.372530440296
100.372583129699
100.372370323864
100.372386023494
100.372316899307
100.372286156617
100.37223324064
100.372205589886
100.371516994053
100.370414467788
100.372119662882
100.372336483689
100.372331150148
100.372345960564
100.372440505017
100.372339432957
100.372583348437
100.372480045471
100.37261860716
100.372694840371
100.372674937822
100.372521716771
100.372072876181
100.37253199222
100.372579357679
100.372708062624
100.372717624446
100.372719647199
100.372669126802
100.372576969825
100.372625738062
100.37241713699
100.372423476387
100.372389211227
100.372361475479
100.372326606083
100.372294463929
100.372164537164
100.370872130246
100.370215224947
100.372022224329
100.372428792368
100.372383659092
100.372409086402
100.372444188751
100.37246998031
100.372417695309
100.372622676042
100.372520495788
100.372653494355
100.372725241336
100.372709802204
100.372609051081
100.372080898266
100.372504536705
100.372547780641
100.372647441087
100.372702484571
100.372742192159
100.372584171705
100.372654912922
100.372671250307
100.37261783483
100.372524868692
100.37247293931
100.372445977658
100.372501473608
100.372464795072
100.372453933003
100.372445675366
100.372409072446
100.372088281505
100.370782379243
100.370488427556
100.372035756614
100.372510946907
100.372512761463
100.372515309088
100.372510557609
100.372505128113
100.372531192977
100.372511501772
100.3726713025
100.372594337562
100.372659810454
100.372705528528
100.372672970057
100.372537128141
100.372077445641
100.372425311182
100.372614909623
100.372657647478
100.372608746079
100.372637984602
100.372668417047
100.372631913489
100.372532718412
100.372059917341
100.37237464316
100.372429243539
100.372499612103
100.372617579556
100.372654896321
100.372537982537
100.372595133731
100.372568203804
100.372584731875
100.372663962391
100.372519844481
100.372531281677
100.372594875908
100.372561970178
100.372574918441
100.372572495181
100.372614568119
100.37230235165
100.372142803511
100.372698303521
100.372647958928
100.372643377722
100.372610376825
100.372621024342
100.372587647445
100.372580098129
100.372618600637
100.37260786033
100.372576124596
100.372621048795
100.372585682031
100.372302316251
100.372478212912
100.37258381315
100.372545992946
100.372593114155
100.372606193795
100.372652994467
100.372571992797
100.372614158282
100.372622887587
100.37264531262
100.372695964689
100.372625737249
100.37284242137
100.372227791618
100.372611040237
100.372784276248
100.372736728599
100.372704258394
100.372684745033
100.372658435625
100.372643524502
100.37260871844
100.372647120628
100.372583450884
100.372582161793
100.372628101583
100.372541149112
100.37238545205
100.371958901223
100.372337902499
100.3724888185
100.372581136173
100.372545744202
100.372584500337
100.372601451598
100.372515265577
100.372496606406
100.372050038262
100.37239294788
100.372518386094
100.372595720181
100.372563441147
100.3726010717
100.372631485664
100.372647756974
100.37262762214
100.372656519349
100.372656004797
100.372694318551
100.372684693969
100.372765446966
100.372655501606
100.37289718932
100.372326778222
100.373064016683
100.372777616916
100.372842782789
100.372758781085
100.372756117898
100.372734796048
100.372694677474
100.372702764229
100.372685690774
100.372635957219
100.372613558289
100.372685564961
100.372627998556
100.372640103778
100.37228113089
100.372572910877
100.37261854527
100.372627137441
100.372600948977
100.372596842183
100.372632412094
100.372680817971
100.37284559376
100.372683496248
100.372404818349
100.372857538878
100.372944821653
100.372910360374
100.37289818518
100.372933512954
100.372787646133
100.372657877058
100.372647957118
100.372687205823
100.372701265505
100.372656060548
100.372660919745
100.372704883423
100.372724309556
100.372835440429
100.372767794728
100.372848501634
100.372765953671
100.372954483923
100.372449533345
100.373054670863
100.37291302199
100.373054155051
100.372937881223
100.372904924671
100.372921273383
100.372798919671
100.372744684944
100.372773823917
100.372753712291
100.372661479252
100.372732781146
100.372838911149
100.372915225199
100.372816501734
100.372807509157
100.373009761169
100.373245747305
100.373220444162
100.373260371784
100.373089360952
100.373300422218
100.37361506589
100.373653634611
100.373748073038
100.373450761181
100.373016126549
100.372900686561
100.373065063524
100.372929031139
100.372936295202
100.372853645143
100.372892720696
100.373018767207
100.372925334445
100.373039559081
100.373057844355
100.373233220608
100.373076059003
100.373218902663
100.373494850217
100.372820001116
100.373018382512
100.371675182009
100.372134361489
100.370651146311
100.371294438515
100.3697995638
100.368811930195
100.369245680824
100.368430494225
100.369101555991
100.368351616933
100.36792954855
100.368672151593
100.368342525374
100.36819983153
100.36936038426
100.369410220361
100.369589234939
100.371105085936
100.371298879906
100.372210025345
100.372330287008
100.372449310593
100.37250635733
100.372581989528
100.372581974768
100.372644782228
100.372675139294
100.372724249917
100.372683373079
100.372779944666
100.372699219692
100.372751286022
100.372802130176
100.372771802453
100.372701359834
100.372605151541
100.372743840958
100.37269293398
100.372724064607
100.372399037943
100.372282678838
100.372484165956
100.372291379015
100.371896273462
100.371482379165
100.371412472684
100.371716840612
100.371792696064
100.372323735816
100.372171409577
100.371841874986
100.371322015776
100.370651387612
100.369921465387
100.370460458295
100.370709442262
100.370592653953
100.37124667268
100.37123076085
100.371291542881
100.371013499546
100.371381547381
100.37188629424
100.372056090287
100.372343350529
100.372343370595
100.372448795388
100.372456582465
100.372369957772
100.37238171223
100.372407812743
100.372424839953
100.372460623703
100.372478895825
100.372498665821
100.372558358994
100.372564192422
100.372592242404
100.372598121171
100.372637287389
100.372685620803
100.372696969789
100.372734537931
100.372789752665
100.372787758762
100.372906718874
100.372906234984
100.372821503316
100.372880443847
100.372709244979
100.372753143087
100.372749767145
100.372782849291
100.372761696746
100.372725288085
100.372931365811
100.372937011473
100.372906852598
100.3729553221
100.373006424189
100.373068166556
100.373125795043
100.373226845249
100.373288857519
100.373342451372
100.373402775068
100.373506366389
100.373573872265
100.373726124493
100.373984086871
100.374202670432
100.374365062448
100.374507199518
100.37442438187
100.374307816822
100.374015413652
100.373620061027
100.373310831279
100.373465096214
100.373074923698
100.372668860747
100.372150016076
100.371406811686
100.371084342744
100.370712818829
100.370486976379
100.370438817221
100.370259717393
100.370553228638
100.370299491593
100.369942002267
100.369586711888
100.369412791082
100.369933403718