/*--------------------------------*- C++ -*----------------------------------*\
| =========                 |                                                 |
| \\      /  F ield         | OpenFOAM: The Open Source CFD Toolbox           |
|  \\    /   O peration     | Version:  v1612+                                |
|   \\  /    A nd           | Web:      www.OpenFOAM.com                      |
|    \\/     M anipulation  |                                                 |
\*---------------------------------------------------------------------------*/
FoamFile
{
    version     2.0;
    format      ascii;
    class       volScalarField;
    location    "1.4";
    object      p;
}
// * * * * * * * * * * * * * * * * * * * * * * * * * * * * * * * * * * * * * //

dimensions      [0 2 -2 0 0 0 0];

internalField   nonuniform List<scalar> 
74874
(
100.128976645288
100.131360828836
100.131834199586
100.130423988236
100.135939185169
100.13652557558
100.133367713922
100.134976045253
100.13749306893
100.137566720647
100.135454252902
100.133918154109
100.137201836346
100.136651819694
100.13766319542
100.137846601644
100.137227973278
100.13408926288
100.131180257179
100.130610676904
100.132085092229
100.133402239877
100.131883698551
100.131534046694
100.136975284363
100.137111202655
100.132510513919
100.132776137024
100.133938883398
100.132117567436
100.132255074461
100.133753249631
100.132758040043
100.132457873127
100.137044087955
100.136546270425
100.131444205883
100.131860388135
100.133302407754
100.131723123419
100.130292066616
100.130817520841
100.133724043226
100.136870411959
100.137317948105
100.137075820248
100.130932767361
100.130192407162
100.129798354875
100.129232232329
100.128219473263
100.128224783491
100.127509843009
100.127857504313
100.128124479325
100.128681266512
100.129882017361
100.129370496018
100.127762884852
100.127475565094
100.12720850633
100.126755405566
100.126799761085
100.127337646211
100.127498639905
100.127834323833
100.129387311306
100.129921036613
100.128796829222
100.128279964072
100.128147932125
100.127810334649
100.128472050533
100.128482007207
100.129470304505
100.130087056146
100.130564233775
100.131342634546
100.130886804749
100.132457129815
100.132065606284
100.133208180564
100.13346755124
100.133252418058
100.132685276441
100.132204044504
100.131707248883
100.128551119571
100.126876095579
100.128907024769
100.127868410372
100.124176436519
100.125125383585
100.127737341081
100.12743493351
100.125691481695
100.123933130529
100.125515457938
100.127078165542
100.126428696547
100.125752664192
100.125336634712
100.123516533337
100.12245175996
100.123648460877
100.123592894883
100.122331342995
100.123469600167
100.125449450717
100.125932304273
100.126278768835
100.127286996715
100.126059956447
100.124413282936
100.126056106647
100.127695105795
100.127971897441
100.12530142415
100.124393913282
100.128277534956
100.129331371587
100.12739197597
100.129371133368
100.132932992055
100.133156518631
100.130745257477
100.130509159597
100.124090019758
100.132240479605
100.131833824913
100.126403326399
100.123929184603
100.128567077393
100.128939678759
100.12326883891
100.123502707274
100.126402074649
100.12480874183
100.123636182218
100.121640604377
100.124527381416
100.127103203979
100.123342599537
100.122785725579
100.125024586324
100.121399608141
100.119051795477
100.121236264833
100.121201434908
100.118989942085
100.121372006034
100.125135806527
100.123158068465
100.124006292996
100.12806822699
100.125510894097
100.122218925271
100.12405220192
100.125112901142
100.126687573706
100.123712400779
100.123431516385
100.129514926909
100.129037675021
100.124629882494
100.127660148145
100.134451420335
100.135329686178
100.125025451936
100.152160988032
100.150118989972
100.122699601696
100.122562746267
100.127890214433
100.117431263923
100.118964790103
100.130017287304
100.12639061756
100.123538210334
100.123468360489
100.128374351652
100.117947951549
100.119093059024
100.119351005001
100.119103237062
100.125926873
100.12219115981
100.122155472511
100.125789312675
100.119231809173
100.119500147029
100.119268866098
100.11786069863
100.116311495018
100.11925268793
100.117009441851
100.108370784883
100.11097368239
100.082747704606
100.07885954602
100.079223021469
100.084992677562
100.11621912833
100.110536596839
100.093492968325
100.086503185866
100.080182467734
100.080936795216
100.085913195316
100.08289576125
100.0838615065
100.087158502496
100.087145862917
100.083812971891
100.082879220744
100.085549111311
100.084729660413
100.078524874483
100.077254336962
100.081783076912
100.07982564494
100.079656756457
100.078656510467
100.07868194126
100.084907073791
100.084112419395
100.0844278942
100.084813474922
100.080079370352
100.080652370652
100.082000300941
100.081975789399
100.080634141475
100.079869231963
100.08086032939
100.080085915741
100.078604733512
100.078637497772
100.085432982203
100.084495323746
100.084157443958
100.08492527687
100.086203656899
100.086146993777
100.08552813525
100.085706886351
100.085960700585
100.085993462722
100.085086472736
100.084804330228
100.084795452802
100.084977130095
100.084617569907
100.084387943842
100.08404563141
100.084969677082
100.086079919504
100.086389796804
100.085645465025
100.085540568822
100.083815108102
100.084103442798
100.084084283898
100.08387868253
100.084032482334
100.084031868149
100.084061092584
100.08392462783
100.085642171602
100.085615731965
100.085858842008
100.085780491855
100.085615367186
100.085454632174
100.083749906362
100.083935384099
100.084076280894
100.083791438183
100.081469331175
100.081521001679
100.081633768646
100.081661855651
100.08157662076
100.081693677509
100.081643973628
100.081693669728
100.081645297261
100.081630996491
100.083904511606
100.083977426388
100.083907413018
100.083910989376
100.081586272497
100.081435546694
100.081516533011
100.081531382901
100.079531409742
100.079519759769
100.079571851386
100.079630989346
100.079690149467
100.07961514254
100.079701996473
100.079670492786
100.079719120244
100.079684124281
100.07967237144
100.079693609695
100.081655299282
100.081560160071
100.079605195795
100.079622523566
100.079511177834
100.079582756173
100.077847639677
100.077806407432
100.077754667159
100.077786296921
100.077829439867
100.077907680823
100.07785105575
100.077931736657
100.077910448605
100.077958618653
100.07793985655
100.077935468928
100.077945544497
100.077860786206
100.077875639486
100.077796776488
100.075994463175
100.075996573326
100.075954112195
100.075853134859
100.075870776501
100.075916207903
100.076019815198
100.075990129104
100.07608186576
100.076061601084
100.07613123499
100.076144367672
100.076150748974
100.076147285241
100.076049154328
100.076061280104
100.073983126608
100.073905746225
100.073873688696
100.073821474809
100.073574811403
100.073586398922
100.073734078044
100.073844871611
100.073824049602
100.073943109719
100.073944074717
100.074048910726
100.074102297748
100.074157351889
100.074143292664
100.074028624113
100.071466493526
100.071382010587
100.071264571357
100.071238133263
100.071176392688
100.070580083893
100.0705454554
100.070973055884
100.071075706679
100.071089805951
100.071242563846
100.071311378489
100.071503287104
100.071566451417
100.071645996668
100.071589341827
100.067764788966
100.067587622159
100.067584341465
100.067369719599
100.067173104115
100.067372051926
100.066136320762
100.06599247368
100.066922180803
100.066803352555
100.066964919783
100.067232126321
100.067274577658
100.067637729636
100.067816765564
100.067872119271
100.061799790492
100.061642202765
100.061331950515
100.061453039939
100.061305271775
100.060420603391
100.061303554974
100.058780312684
100.058655349471
100.060616186304
100.059720543142
100.06043783529
100.060708677212
100.06070691781
100.06124626114
100.061631529398
100.03933295528
100.039542430544
100.036279229711
100.035988720796
100.039617517572
100.040195603937
100.035433982859
100.035902710878
100.035819305235
100.035726752979
100.035276751461
100.034177723592
100.039019468387
100.038685418818
100.035434831733
100.035872614596
100.041703932135
100.044504235203
100.044582720667
100.042439610087
100.042220654494
100.043861181202
100.046083941666
100.039872775034
100.026702052295
100.069080355272
100.104723780693
100.104400524005
100.067940115377
100.035139833097
100.035355017097
100.173975496408
100.298492558506
100.223950096717
100.221982535094
100.175174511922
100.159812063139
100.145199226686
100.038867113135
100.045406089326
100.043598044307
100.041618420616
100.150991151048
100.151648440867
100.190437713403
100.129381895634
100.13011950551
100.191805648007
100.152913567285
100.15172504813
100.188097641653
100.125050672667
100.122824514887
100.17894553852
100.145533084344
100.162736386835
100.17776062623
100.29777451657
100.367836466786
100.346170711916
100.342890539853
100.361664592707
100.339978340332
100.293536752412
100.458967551742
100.485209081508
100.492276676015
100.52616903646
100.596325965174
100.600537958224
100.521306835497
100.454325943965
100.38790124284
100.349989304295
100.37398489194
100.372519957068
100.369456536558
100.369551432272
100.37046533803
100.371444366175
100.372710111188
100.374524074864
100.376879985928
100.379624263955
100.382493272872
100.385032670541
100.386644426881
100.385421854274
100.383726862885
100.381714495418
100.37951761851
100.377302775491
100.375082524409
100.372861144402
100.370763652498
100.368924435042
100.36742538322
100.366270222681
100.365359154475
100.364607215736
100.363983471013
100.363491124532
100.363188641554
100.363133399893
100.363312165676
100.363768333038
100.364690769619
100.366250144703
100.368088388236
100.369888904558
100.371598873435
100.372727878792
100.372627257246
100.372562440875
100.371918485216
100.371368262954
100.369549195427
100.367674649594
100.365955542813
100.364601762982
100.363834858875
100.363439631914
100.363250683331
100.363252851282
100.363497224651
100.363955232218
100.364563051812
100.365287794944
100.366157288489
100.36723768047
100.368628958954
100.370340923614
100.372318943427
100.374431989101
100.376524465599
100.378553426859
100.380507437812
100.382264672441
100.383761294612
100.384850631478
100.385385308518
100.38724700256
100.388509884626
100.387866594639
100.386562171166
100.384737959067
100.382553508415
100.380177418167
100.37779566874
100.375455386052
100.37316275192
100.370995421352
100.369080067729
100.36751026347
100.366300513906
100.365366894855
100.364619824462
100.364013868402
100.363544571239
100.363239244695
100.363145679416
100.363301051768
100.363788846899
100.364821258499
100.366544060478
100.368480722833
100.370272926753
100.371903104622
100.372949101053
100.372845285
100.373203629085
100.373444592961
100.373437978175
100.373648460172
100.373533366673
100.373741476101
100.373625368248
100.373838983817
100.373783598246
100.37384896861
100.373700554377
100.373642594929
100.373529616641
100.373387853303
100.373381627607
100.373313794386
100.373553867804
100.373725675566
100.373665467767
100.373718992017
100.373529538111
100.373635019672
100.373432097653
100.373552844158
100.373341522752
100.373343174343
100.373105594869
100.372960062166
100.373216527616
100.373226871459
100.373434289381
100.373325568137
100.373515388864
100.373449375126
100.373608108817
100.37354488392
100.373549965318
100.373366395453
100.373349953751
100.373271830972
100.373277771418
100.37319962315
100.373322055236
100.373442050424
100.373450800917
100.373313482995
100.37339726321
100.373223012786
100.373317052385
100.373119736068
100.373097012448
100.372826460753
100.372624317907
100.372901019622
100.372960063503
100.373150686639
100.373109678639
100.373225566613
100.37328756956
100.373197438584
100.373392554788
100.373484810963
100.373551929928
100.373657199056
100.373770799086
100.373893134662
100.373748394002
100.373980448424
100.373932444415
100.374014917618
100.373867319784
100.373825872247
100.37363072541
100.373340882181
100.373028917846
100.372838953581
100.372677003362
100.3724951734
100.372353642784
100.372401678684
100.372559717789
100.372783027448
100.372953967623
100.37312697128
100.373452647903
100.37329309002
100.373138384419
100.373059548837
100.373158381483
100.373102726121
100.372765398177
100.372504667923
100.372410151149
100.372259527708
100.372351304146
100.37240701777
100.372678764501
100.372991381972
100.373078028595
100.373131559205
100.373252487913
100.373335532619
100.373455490473
100.373545452887
100.373624914203
100.373727623167
100.373850313913
100.373986553907
100.374041073424
100.374126952169
100.373956911898
100.373939546416
100.373694117799
100.373506604652
100.373232182148
100.372795055849
100.372358454899
100.371983776415
100.371827012601
100.371578014667
100.371570878828
100.371880040494
100.372227664786
100.372637410416
100.372394516281
100.372082496224
100.371754869138
100.371555063728
100.371368664673
100.371156857785
100.371003800235
100.371135268463
100.371372807617
100.371657449243
100.371825567731
100.371900813632
100.371632276607
100.371804231161
100.372226324326
100.372181470445
100.37257670632
100.372803283208
100.373120140024
100.373297685785
100.373329308209
100.373437594205
100.373540158176
100.37364314275
100.373547149927
100.373761451214
100.373643931254
100.373867965067
100.373979842096
100.373860995778
100.374089744701
100.374218688498
100.374206392347
100.374300709131
100.374205547138
100.373995265496
100.374013917152
100.373986789451
100.374126109768
100.374082714066
100.374203233484
100.374114309928
100.374137155817
100.373973367357
100.374078590713
100.374321661571
100.374306116652
100.374404126041
100.374360352907
100.374209828239
100.374153087491
100.373730884923
100.373558366869
100.373421954701
100.37304275774
100.372583985992
100.372200526912
100.371601051688
100.371380459289
100.371107224847
100.3708718573
100.370654967501
100.370448172913
100.370149717617
100.36984767112
100.369748769377
100.370088055054
100.370476986936
100.370717458031
100.370922368463
100.371146005052
100.371349479489
100.371073230576
100.371231195282
100.371032844719
100.371345162721
100.371911014597
100.373078686409
100.373404902463
100.373426378832
100.373665787349
100.373657108905
100.373865534641
100.373750144433
100.373866321045
100.374088972688
100.374188831075
100.374297753207
100.374198630734
100.374439066233
100.374430966872
100.37452853352
100.374478439956
100.374318968547
100.374264434228
100.373892846714
100.373710463628
100.373357666657
100.372954732632
100.372598513954
100.372393769655
100.371820355397
100.371627892428
100.371445888622
100.371314647386
100.37131915146
100.371014662054
100.370728693883
100.370521690476
100.37016248937
100.370378671017
100.370721735909
100.371017987313
100.371174404623
100.370886439008
100.370597840021
100.370214765087
100.370234698384
100.369792904109
100.369379113952
100.369048691964
100.368797966005
100.368585961699
100.368863926413
100.369205622229
100.369547723001
100.36990725491
100.369633017643
100.369789645968
100.369897609525
100.370123264574
100.370222943652
100.370870949902
100.371567019346
100.372820316652
100.373166967514
100.373300137709
100.373324972775
100.373560066103
100.373577467627
100.373682026791
100.373806925523
100.373789056119
100.373773463796
100.37398397699
100.374085903979
100.373973358358
100.374079667928
100.374180347571
100.374386759859
100.374298034605
100.374530918605
100.374519299787
100.374623039261
100.37456924749
100.374460488362
100.374361251441
100.374060641273
100.37385235292
100.373465863222
100.373055779603
100.37273349962
100.372200768988
100.372061467731
100.371876987845
100.371708681899
100.371589541496
100.371612485123
100.371481836092
100.371712305365
100.3714130824
100.371104497125
100.370794425285
100.370453728782
100.370081703853
100.369661532224
100.369251540164
100.368724488378
100.369031510458
100.369539193038
100.370007453023
100.370266435524
100.370551065491
100.370865604954
100.371177781197
100.371187700148
100.371047169999
100.370673497103
100.369907981178
100.369869261337
100.369701753263
100.369053705791
100.368524262605
100.367194356409
100.36764307899
100.368461282287
100.369228001581
100.369962171808
100.370280419493
100.370164753299
100.369668612514
100.368909035925
100.368106122932
100.367058964031
100.366137227916
100.365721448526
100.363821242648
100.36271220639
100.364101196726
100.365127176119
100.365877547613
100.366878807722
100.36677001548
100.365394869005
100.364607533929
100.363396887486
100.361936862721
100.361024611072
100.360856021544
100.361956225907
100.363607079178
100.364802740002
100.365467172522
100.366502073771
100.367128743231
100.367985519749
100.369051951907
100.369819073639
100.370578366975
100.37122306949
100.370546914247
100.370837908913
100.370639799098
100.371514826339
100.37097268594
100.370414331771
100.369866030415
100.369332011818
100.368731666515
100.367886577061
100.366609000285
100.365867608617
100.364770495067
100.364397874872
100.363905967287
100.362635677982
100.362122282167
100.360987918378
100.355666636478
100.357132349833
100.357679361895
100.359909218719
100.361147239149
100.364100387381
100.364954594343
100.367655623817
100.368518229047
100.370606620056
100.369765717084
100.3686695191
100.368611154225
100.368582236963
100.368649500275
100.369105133763
100.36837983512
100.366774810668
100.366416736524
100.36630866986
100.36639346567
100.368495819733
100.370542651199
100.370503615552
100.371316716345
100.371821332447
100.371817193554
100.372240581049
100.371973455305
100.372151866783
100.372217553783
100.372277155621
100.372199931934
100.372098047602
100.371929549964
100.37140290956
100.371197106626
100.371348210207
100.371424009313
100.371289458317
100.371524360211
100.371517282977
100.371666080005
100.371984421364
100.372038305384
100.372248861894
100.371932473672
100.37219160614
100.372249003455
100.371903104841
100.372104422624
100.371778646751
100.371771722409
100.371300980099
100.371171083561
100.371665867266
100.371689875884
100.371990749651
100.371851301415
100.372110687807
100.371888618047
100.372106929167
100.371896104458
100.371840241215
100.371733137684
100.3718353644
100.371992554924
100.371874132212
100.371714450755
100.371540273922
100.371187586015
100.370733659341
100.370288604898
100.370683741344
100.370740964392
100.371135528482
100.371053218761
100.371480036782
100.371646962921
100.37184133799
100.371610361625
100.371842303605
100.371909707536
100.371733858037
100.371857358586
100.371479035352
100.371558182275
100.371297174185
100.370631099141
100.370421620273
100.369613021617
100.36974184453
100.369852546194
100.370801935908
100.371312623398
100.371346844343
100.371727250331
100.371489150404
100.371841381121
100.371775356488
100.371568928999
100.371733672366
100.371544782035
100.371325707491
100.371139555155
100.371411548075
100.371530366174
100.371671138773
100.371604561338
100.371478357252
100.371247759098
100.370888004632
100.370223775387
100.369482806493
100.370171392544
100.370333446624
100.370818518207
100.370784868505
100.371222293716
100.371436927949
100.371573417424
100.371314776187
100.371599862233
100.371609287617
100.371479223961
100.371517486398
100.371658461858
100.371243553293
100.371316846221
100.370913145714
100.370134269126
100.370202953237
100.37099261275
100.3710480219
100.371593877874
100.371352696955
100.371473612793
100.371531936116
100.371522941927
100.371563116662
100.371590098849
100.371738213746
100.370087027031
100.371090406124
100.371153333486
100.371412372927
100.371903139914
100.372035807074
100.372035367155
100.372299988924
100.372258580499
100.372372630653
100.372461765769
100.372316323632
100.372438490011
100.372266916537
100.372260263464
100.372324818339
100.372361540953
100.372430399748
100.37259403787
100.37263111554
100.372626761161
100.372321951899
100.372256708119
100.372297644877
100.372071107602
100.371723735227
100.371424691149
100.370728743576
100.37011333162
100.369524312884
100.36973654323
100.369967354361
100.369892750298
100.369773028249
100.370193715053
100.370278944145
100.370452337743
100.370486372014
100.370118552666
100.370468400721
100.370728128836
100.371009242161
100.37152392351
100.371835747802
100.371985185313
100.372046646772
100.372107209215
100.372126901571
100.372197151881
100.372428890683
100.372371810949
100.372591546294
100.372496195102
100.372691203037
100.372907570805
100.372812139916
100.372802951061
100.372512277678
100.372396880788
100.372138322192
100.371684258284
100.371202553485
100.371087259396
100.371250982051
100.371385055898
100.371979178045
100.371528188703
100.371651172189
100.372003789353
100.372140892149
100.372377419733
100.372402639358
100.372556723793
100.372476203822
100.372780753036
100.372656403393
100.372708478471
100.373030158382
100.372949046146
100.372935531017
100.37278583429
100.37259122851
100.372805369207
100.372863346066
100.372962203643
100.373074154559
100.373140998699
100.373072447675
100.372945050292
100.372967696626
100.372728712298
100.372704968844
100.372529130906
100.372159314312
100.372168362126
100.371633697721
100.371205915013
100.371120427973
100.370835133818
100.370719337673
100.37065503724
100.370567870069
100.371446457155
100.371971737371
100.372059050293
100.372271304216
100.372293666411
100.372584366846
100.372781703699
100.372538378619
100.372972109735
100.372938624257
100.373079571201
100.373178137037
100.373301146048
100.373391605901
100.373497277896
100.37359203019
100.373715339303
100.373816075882
100.373936764294
100.374035357585
100.374149073887
100.374240261576
100.374340469822
100.37427780631
100.374469570517
100.374386167309
100.3746109742
100.374607258693
100.374724286779
100.374643163609
100.374611901432
100.374511365668
100.374482707442
100.374274192475
100.374007286005
100.373598477548
100.373206642174
100.372905344945
100.372399773048
100.372297071899
100.372135926454
100.37207973482
100.372071347165
100.371819488353
100.371705965422
100.371943181397
100.371948565303
100.372003245423
100.372087205176
100.371839785448
100.371592872565
100.371333219744
100.37103630708
100.370704935748
100.370231543505
100.370514019365
100.370914413936
100.371205197697
100.37147899657
100.371745272551
100.371700628786
100.371409153515
100.37112007181
100.370816137538
100.370415210222
100.369889772951
100.370241739626
100.369731644259
100.369204491695
100.368720301374
100.368295191597
100.367594004969
100.368009088159
100.368613491592
100.368984975116
100.369450733477
100.369412307235
100.369263772002
100.368961234178
100.368822742539
100.368712858173
100.368935846016
100.36856610193
100.369448392285
100.371475287536
100.371838559858
100.372222112434
100.372251028324
100.373207034983
100.373087556447
100.373560254579
100.373671171042
100.373896699162
100.373887400981
100.374001074624
100.374189686412
100.374282934646
100.374378517259
100.374454965833
100.374362881072
100.374539334617
100.374478705043
100.374679925485
100.374677028501
100.374776337236
100.374687679133
100.374667758323
100.374558907733
100.374323104913
100.374129189434
100.373729426659
100.373400049697
100.373089497151
100.372631902653
100.372499073547
100.372196507125
100.372309366268
100.37211103909
100.372249666332
100.372245681978
100.372380631155
100.372149759988
100.372165019333
100.372273645455
100.372345640989
100.372299589936
100.372383760351
100.372133124255
100.371897908554
100.371646834957
100.371356711122
100.371044086991
100.370684328858
100.370227381466
100.36980163071
100.369383383319
100.369783594288
100.37023760712
100.370523805042
100.370905137758
100.371225360019
100.371509154318
100.371767487623
100.372026757881
100.372043346268
100.371955371035
100.37147601803
100.371891165586
100.371357274206
100.370869493766
100.371358989373
100.370904335834
100.371155561523
100.3707850892
100.371989538568
100.370668050104
100.370020046
100.369302922173
100.368672903383
100.36816353598
100.367732404148
100.367133787382
100.366271995351
100.365281614412
100.36374493599
100.363731622668
100.363351478246
100.363094621725
100.361798383577
100.360674531304
100.360266674684
100.360058861413
100.353875284061
100.354465297676
100.353509473694
100.354004870349
100.353764285347
100.355496216538
100.356267129396
100.35533232976
100.353934491686
100.355453115352
100.35505691423
100.355409226689
100.356246473587
100.356416087094
100.355326492638
100.355624866503
100.358566277867
100.35427700687
100.354080827682
100.356069899918
100.356162503682
100.356650807567
100.358213131955
100.359631903755
100.360506096361
100.359959548319
100.358354267598
100.359534404477
100.360695325636
100.359523175378
100.358140955585
100.358163115343
100.359826141118
100.361280148879
100.363076407096
100.364542022131
100.365194735256
100.363572450267
100.36488119435
100.366378340186
100.366853025432
100.368287329607
100.367495683506
100.368656311827
100.369593105534
100.370426553682
100.371079100127
100.371669112026
100.371837849706
100.372113008134
100.371932489433
100.371138272496
100.371557280153
100.371404678441
100.372299008843
100.371241631297
100.368673326666
100.368069235431
100.367367907426
100.366715824314
100.366219853829
100.365875219643
100.36550520853
100.364999185765
100.364321052009
100.363498992043
100.363361711617
100.363561127318
100.363684589612
100.363610529847
100.36324242762
100.36286170802
100.364199481619
100.364501111989
100.365345231824
100.366735787485
100.368791313857
100.369231597908
100.367216516156
100.365633882325
100.364528201455
100.36394665966
100.363628176558
100.363454509546
100.363428603958
100.363607494229
100.364000156728
100.364549794363
100.365204582704
100.365983174988
100.366939796964
100.368161443599
100.369694290637
100.371523161516
100.373538021396
100.375545922903
100.377384653823
100.37903581389
100.380492375074
100.38173887317
100.382663444468
100.383121832872
100.383083072844
100.38535650939
100.387228985954
100.388500405822
100.389069945633
100.389074407644
100.388410450954
100.387063475262
100.385169607148
100.382899421895
100.380423039463
100.377941266941
100.375524897911
100.373181713069
100.370970499254
100.36902507537
100.367434561221
100.366210643091
100.365286088176
100.364568040263
100.364003766885
100.363592319746
100.36333276726
100.363240850945
100.363386613527
100.363918137515
100.365052425739
100.366904031005
100.368917024736
100.370699722931
100.371189770623
100.372636127335
100.373493478375
100.373365234396
100.373657824094
100.373363213191
100.373913739196
100.374033737823
100.374016570261
100.374122868508
100.374111875721
100.374215277414
100.37431211772
100.374394050526
100.374523221473
100.374441340862
100.374603672392
100.374559932466
100.374736361247
100.374740528348
100.374824279528
100.374751824324
100.374729936097
100.374627361533
100.374396287957
100.374219198539
100.373746030781
100.373554985507
100.373327532857
100.373183249827
100.372924048255
100.372756393858
100.37247034718
100.37251284593
100.372462525574
100.372479480691
100.372582991665
100.372508057803
100.372740266657
100.37256965515
100.37230959158
100.372505873135
100.372547260736
100.372581817508
100.372657953001
100.372456480779
100.372419312013
100.37207852206
100.371816298202
100.371557506945
100.371242876168
100.370908959994
100.370510554603
100.370236884073
100.370454418973
100.37086139246
100.371191056068
100.371510692424
100.37176819702
100.372030132203
100.372304125764
100.372292562976
100.372362023364
100.372269477854
100.372078386343
100.372262722393
100.372059873773
100.372315886043
100.371850724925
100.372303790096
100.371900236353
100.371576467172
100.37184021559
100.37197678431
100.371753777453
100.372557451262
100.371775624542
100.369295173701
100.367269037686
100.366000114161
100.365253907976
100.364794956012
100.364380281638
100.364183272795
100.363945189736
100.36373541169
100.36349505061
100.363352193494
100.363164044402
100.363007029856
100.363096960704
100.362908704711
100.363551725969
100.363579233231
100.363761453345
100.363620155312
100.363548568143
100.363774570893
100.363899904269
100.364166255901
100.363583665739
100.363990602535
100.363633948935
100.363291591327
100.362341601372
100.360994057021
100.360858971336
100.35984474228
100.359715488326
100.354138759939
100.354957510706
100.354775274926
100.356027025583
100.355995223525
100.357565590652
100.358442907078
100.357677346972
100.35686611072
100.357424178145
100.357849906636
100.357798176769
100.358148482232
100.358594937949
100.357759782996
100.360398015422
100.36041642726
100.358572034087
100.360397634952
100.360432168198
100.35664402778
100.35646062579
100.355062693701
100.35859395867
100.361086675972
100.364216082677
100.366940708708
100.368372245408
100.368985177256
100.370092740254
100.370832887532
100.371042590113
100.370970857468
100.371420055313
100.371261280745
100.37149413162
100.371490320555
100.371278123637
100.371391332627
100.371125843371
100.370839128528
100.371169771732
100.371345994976
100.371255988256
100.370987661804
100.370577494144
100.369969481914
100.370678572662
100.370760214122
100.371131001955
100.371083612503
100.371319474668
100.371515257176
100.371487545644
100.371230004716
100.371484633893
100.371532831583
100.371117154743
100.37132157622
100.371442760535
100.370996594689
100.371009961675
100.370474106025
100.369594310588
100.368495475329
100.368057399848
100.366220545731
100.367765256011
100.36761195573
100.368785138034
100.369693974491
100.370623636888
100.371079810003
100.371060649801
100.371434019298
100.371265181404
100.371625134682
100.371457474367
100.371443143748
100.371468823717
100.371402690061
100.371348453759
100.371220915142
100.370076101169
100.3709754703
100.371168887307
100.370131913338
100.367477848716
100.368748101166
100.369027612708
100.370365489407
100.371071638144
100.371128893045
100.37053531862
100.367896575817
100.369304982582
100.369777265274
100.370726001094
100.371200046925
100.370858065991
100.370616447526
100.37040410703
100.369957296505
100.368774361374
100.369735889904
100.370772187734
100.370831452583
100.370914999622
100.369341639814
100.370119174728
100.370317795022
100.371042642032
100.371526228088
100.371645855586
100.371657909933
100.371725459302