/*--------------------------------*- C++ -*----------------------------------*\
| =========                 |                                                 |
| \\      /  F ield         | OpenFOAM: The Open Source CFD Toolbox           |
|  \\    /   O peration     | Version:  v1612+                                |
|   \\  /    A nd           | Web:      www.OpenFOAM.com                      |
|    \\/     M anipulation  |                                                 |
\*---------------------------------------------------------------------------*/
FoamFile
{
    version     2.0;
    format      ascii;
    class       volScalarField;
    location    "1.2";
    object      p;
}
// * * * * * * * * * * * * * * * * * * * * * * * * * * * * * * * * * * * * * //

dimensions      [0 2 -2 0 0 0 0];

internalField   nonuniform List<scalar> 
87341
(
100.099513097168
100.101525125522
100.097919257849
100.10243114673
100.10944788258
100.109684214244
100.107719678694
100.108320466253
100.108528225242
100.108851595854
100.109020952307
100.108752906233
100.110533820696
100.110079893299
100.11231305778
100.112362148511
100.109873953212
100.106434104123
100.103929639388
100.103595900205
100.103467109048
100.104895700158
100.102701149225
100.104448094345
100.106762584977
100.110913884298
100.105532669295
100.104488891751
100.103731139188
100.10353258943
100.103410632919
100.103832864208
100.104422945676
100.105416543352
100.110659612652
100.106600677907
100.104225902536
100.102404230914
100.104536204149
100.103080173329
100.103265164628
100.103605002666
100.106135414131
100.10956766421
100.111920847701
100.111769326876
100.105018739257
100.104093848859
100.101233732771
100.101336377569
100.101671523501
100.101517635728
100.101457458671
100.101252689037
100.098897976368
100.102300645912
100.10574108247
100.10419624685
100.100933299262
100.099914494888
100.099204307441
100.099885132383
100.099830627352
100.099058556624
100.099975499553
100.1010083776
100.104347892049
100.105954829675
100.102554419979
100.099146067818
100.101583965829
100.101798237168
100.101798926481
100.101933026683
100.101492724126
100.10139077696
100.104400939009
100.105427572674
100.103014166993
100.106209783442
100.109290642181
100.110808849226
100.108665149603
100.108427481185
100.109645060601
100.107805254042
100.105336222284
100.101081008563
100.106544347453
100.095025112318
100.083826153729
100.089832875548
100.091042234201
100.101161831519
100.095995608175
100.097043667457
100.099636943103
100.098617415744
100.098095058442
100.098237647456
100.097538908813
100.101907607428
100.102481462242
100.098320731122
100.098741735854
100.095963228386
100.094819341803
100.095812149404
100.095830899648
100.094890959303
100.096013941703
100.098759960046
100.098463818228
100.102652730195
100.102191789829
100.097712669147
100.098614195098
100.098444166253
100.098906719509
100.099922350447
100.097219209272
100.09608480924
100.10161191906
100.101913554887
100.098574448988
100.102282767191
100.108678297153
100.113667649907
100.106619086741
100.106441217956
100.111258015381
100.126597834154
100.096067921754
100.096635131948
100.08125058036
100.054427416447
100.055316359469
100.051052267041
100.051545659732
100.057693291424
100.087934115441
100.099328308658
100.096116908379
100.09580211572
100.100473375347
100.107113766059
100.089136010761
100.089726422166
100.091058956654
100.099977041351
100.095180954837
100.09517911179
100.099946707684
100.09110157646
100.089800989088
100.089264669765
100.087722093481
100.08820530466
100.091505589838
100.089754875451
100.049860566487
100.051937163046
100.053167035105
100.052934526494
100.051974827815
100.052015274055
100.054145946339
100.054538187663
100.058195814445
100.08754551545
100.082695693615
100.066351072009
100.060633243026
100.060472854233
100.05758219977
100.058534442715
100.053005593836
100.053180059073
100.055536028957
100.059248729063
100.059259419582
100.055555666578
100.053180877669
100.058339830602
100.057436459681
100.051117385698
100.051997106137
100.058396535187
100.058820617614
100.057941173855
100.057625692424
100.058539742131
100.058389570458
100.057516731205
100.058615664395
100.058697661939
100.05937457778
100.059536386649
100.058900536004
100.054183281882
100.054988452361
100.054981881074
100.054238436228
100.053176941978
100.054301614624
100.053920670633
100.057396463137
100.058551704421
100.059309122965
100.059613153814
100.05893183081
100.058853110764
100.059536994736
100.059421178836
100.057270441256
100.05702405774
100.057137563512
100.057327615589
100.057431567233
100.05732204924
100.059124107246
100.058240203717
100.058226566936
100.058823915878
100.058310568399
100.057389082755
100.058547184364
100.057017037826
100.056904435235
100.057097400173
100.057188421167
100.056987489559
100.057016522039
100.057271918916
100.05482837508
100.054873655743
100.054799773282
100.054908358141
100.054986222134
100.055086148429
100.05507360076
100.055066746865
100.057301001655
100.059092491031
100.059403484458
100.059205502131
100.05719427522
100.054893538231
100.054816629816
100.054693723062
100.054725147861
100.054732952429
100.054672365487
100.054718667734
100.052722290445
100.05286175256
100.052884272295
100.052764672372
100.052879270021
100.053039234506
100.053195006617
100.053207184699
100.053215866525
100.053211152387
100.055055850144
100.057357564092
100.057772271089
100.055276167778
100.053481549846
100.053016800579
100.052862533355
100.052766114174
100.052860911326
100.052853139959
100.052709845085
100.05069400751
100.05062897141
100.050953465155
100.050936920669
100.050702299478
100.050840807545
100.051216769685
100.051502937578
100.051518018503
100.051550330476
100.051619763817
100.051329458509
100.050957569195
100.050872829337
100.051089547879
100.05106399338
100.048748481632
100.048043107348
100.047877990338
100.048494953189
100.048561658407
100.048102424388
100.048236803038
100.04893642906
100.049431874061
100.049474063239
100.04957342681
100.049716429757
100.049260549493
100.048554362741
100.048471493425
100.048864571136
100.046507311422
100.046233458535
100.044747056051
100.044364788366
100.045717379539
100.045996350332
100.045804892584
100.046004974991
100.046539488891
100.047406250825
100.047231730473
100.047468020377
100.048036699231
100.047284258459
100.046722273916
100.046468959156
100.041925591446
100.036203127698
100.03485948364
100.037475475496
100.037513780592
100.035642981162
100.035928952695
100.040962069531
100.042031665697
100.038867421092
100.041819005051
100.043524441434
100.044007736871
100.043108234286
100.040315722495
100.043391111235
100.065238710944
100.064632007059
100.065693961664
100.068108724102
100.075721820286
100.065507740491
100.065134239257
100.074382423257
100.072019426722
100.064779533779
100.071553596412
100.083689504273
100.082014657505
100.070873444552
100.062221660281
100.06106525967
100.058434335604
100.063330882975
100.065815274103
100.071068575437
100.064773212631
100.057456352056
100.05683023987
100.053860075507
100.048630417083
100.047587229141
100.051691977978
100.054880359771
100.05566323508
100.059102112599
100.07260447313
100.066238517802
100.07042232718
100.06396158777
100.065516872376
100.059860732898
100.071098365452
100.069488119599
100.068202577323
100.073218326909
100.093049800498
100.129924086819
100.173465723341
100.224150786328
100.274524828416
100.328571064525
100.371180048043
100.403899916914
100.443107527358
100.467971668614
100.482330863591
100.491243739023
100.458147169112
100.46203898578
100.465694775107
100.466680041013
100.464446789496
100.462493283385
100.465164597255
100.473316436709
100.470737020334
100.472771620009
100.476151354595
100.478006046762
100.478824803637
100.476723446336
100.477077457236
100.455105946639
100.46870718952
100.482848776639
100.471367576634
100.463843072331
100.4526891682
100.452788377648
100.457379532337
100.451192776114
100.433050508079
100.440375364018
100.449471568976
100.451702487484
100.443172532424
100.444054339249
100.448867961798
100.458335426191
100.456102446499
100.470373339633
100.420428991431
100.433513134211
100.438869484583
100.439516465579
100.434918747677
100.421023420459
100.425770553712
100.427971533781
100.421015281794
100.416864925323
100.420624777396
100.423891820137
100.423341926129
100.418946629416
100.411468033108
100.414905809498
100.424873722481
100.42451528014
100.467901204889
100.464731522493
100.411317397867
100.415582207585
100.412526038728
100.407651411406
100.414831051136
100.402395967553
100.397555094787
100.414021373781
100.42015388454
100.416529205249
100.416674493855
100.413391541899
100.42173274942
100.41393491972
100.409372807631
100.419961056694
100.431637630532
100.456780238459
100.448067107197
100.458379836624
100.460743475942
100.461240550884
100.461169851171
100.463578943949
100.464849968054
100.467278294889
100.46375432544
100.464335479435
100.466300782708
100.467961734594
100.460651143109
100.468154065906
100.452248947208
100.440007152295
100.439265122785
100.45225381601
100.446283966247
100.438450566899
100.434243999569
100.422407396752
100.415030972779
100.438417624139
100.4557625759
100.455717508917
100.455150958031
100.408276393392
100.408469803891
100.407521302687
100.400988966499
100.39370330179
100.399854040396
100.397230078525
100.392615120702
100.396512694539
100.398412932847
100.395578278116
100.398274998052
100.395318410838
100.398481550425
100.399797958639
100.393476472806
100.397529898945
100.396116841951
100.398665043192
100.396022170234
100.395759150954
100.402943414556
100.406994796913
100.415822558849
100.427133606471
100.429831701745
100.426496019226
100.419796022683
100.426849499006
100.459668146985
100.488809404182
100.473662360869
100.494088903003
100.510427022261
100.474166719495
100.450847098629
100.449511750298
100.463868596021
100.469424286286
100.468128775735
100.501724339995
100.491178903873
100.497993484471
100.482086189402
100.489496237245
100.47932786935
100.477762111955
100.482555717173
100.478045696244
100.488824121638
100.470211153239
100.484634996637
100.481167026143
100.483410623901
100.487185733286
100.496988980548
100.507214236613
100.509688545727
100.494371932409
100.493738513415
100.495462859735
100.498701465364
100.484384310969
100.455549184149
100.42403542156
100.425858290294
100.434763089776
100.441189158605
100.44004630199
100.431740784223
100.420367125629
100.411247739018
100.411295295103
100.395868945309
100.390360333328
100.402554465454
100.4067838655
100.418795375675
100.424118896733
100.415816765271
100.404632447193
100.417580945492
100.422874183846
100.418784022731
100.417919003729
100.413966939728
100.459187068462
100.460994830065
100.464378929308
100.419784837322
100.427457979807
100.421556884456
100.419380048224
100.415414617215
100.412103250887
100.422206468261
100.444470034186
100.450358812568
100.449537150505
100.405089804389
100.40766764638
100.38832791568
100.397944072376
100.412178699103
100.415118168789
100.40710927339
100.39364832692
100.397966065624
100.403520953249
100.416135733397
100.422575885492
100.43348344335
100.464172026561
100.499237427235
100.497907135351
100.481266740712
100.485001841824
100.486955456286
100.498627031308
100.503966750223
100.489549866854
100.490568321241
100.483332354378
100.51255056921
100.509699523727
100.511782692309
100.505279340533
100.490435863185
100.491211350341
100.504657855434
100.501615382911
100.497061828691
100.497629888436
100.500965891962
100.49928276873
100.500091652005
100.479547101847
100.489848257199
100.465694761923
100.452639881618
100.45135136845
100.453936197055
100.467450220968
100.445816830117
100.450839638275
100.448327945724
100.446014950749
100.441816850715
100.438341655007
100.465765851473
100.469502263774
100.469958150486
100.46889834169
100.46151924462
100.46358546203
100.460157084341
100.460384562964
100.460802849267
100.463167362743
100.464364008575
100.462947146884
100.463909245247
100.464799284577
100.464397412121
100.462919367447
100.460062706992
100.460700923149
100.462110954998
100.462102219688
100.46095211998
100.461044829499
100.462700710051
100.464773456826
100.463563314334
100.463503066842
100.461537380755
100.464476361993
100.465076574585
100.465538177104
100.466358048264
100.467234867636
100.466488829371
100.465829117619
100.465165269756
100.465063953474
100.4645588167
100.463701918478
100.46368278735
100.463043062081
100.463319669108
100.46294174537
100.462983912182
100.463217931885
100.46374101395
100.464027752203
100.46476800585
100.465083475085
100.465576098636
100.465669927215
100.465778121879
100.465923201167
100.46572371802
100.465777307898
100.465699574934
100.465110366786
100.464619373359
100.465933590065
100.466081409911
100.466048182112
100.465984404699
100.466623456221
100.465321289032
100.46597016549
100.465654775601
100.464832516732
100.46615849952
100.465595334411
100.466833094638
100.46643145751
100.466637443494
100.466352103914
100.466684840349
100.466698730596
100.46787626744
100.466234877297
100.466912121421
100.467185698726
100.467307467925
100.467959423807
100.466738701526
100.466616126418
100.464946132907
100.464972034177
100.464900849884
100.46682569748
100.467809700016
100.468359185675
100.468595380741
100.469058559326
100.470012468291
100.470487506359
100.469860476636
100.466526873952
100.468614035641
100.469431232863
100.469269433662
100.468771378784
100.467721765123
100.467387542955
100.465045051136
100.46403041511
100.467058274848
100.467051895075
100.465343015636
100.46536157518
100.465946711683
100.465905580691
100.464838331677
100.465103912405
100.463941171317
100.464131126227
100.463437494937
100.462780425236
100.462612510147
100.463046123472
100.464886500265
100.464696368779
100.463455134378
100.463281755251
100.465370723028
100.464404161153
100.460928174705
100.46053525183
100.46048505862
100.460688615673
100.460474655575
100.461567979675
100.461257061935
100.463419075549
100.462648404453
100.46460929462
100.464815619118
100.467650777888
100.463933652563
100.465938272059
100.468167868428
100.46924874433
100.469638867238
100.470940044331
100.47180976093
100.470739488964
100.471390439214
100.47022055801
100.467010215596
100.462363121464
100.4670077939
100.46398348194
100.462320126858
100.46158100942
100.454046666568
100.455550509769
100.45486009665
100.461929051977
100.458612929822
100.460760698925
100.459587873724
100.456442552654
100.458357412479
100.456798785751
100.455077183557
100.456907301285
100.455183985041
100.454824176389
100.456603415123
100.455637412517
100.457286868215
100.45815234476
100.459054747131
100.458787216208
100.46411703269
100.465488641749
100.464229905915
100.466154039312
100.463853724246
100.464461461499
100.464611299054
100.465537750749
100.465625986753
100.46519204865
100.46527633604
100.466037992863
100.466254152657
100.465850404535
100.46563922046
100.464913339072
100.464654193668
100.463919070263
100.463558129105
100.464462822413
100.464839633668
100.465486553725
100.465605254066
100.466073650853
100.465932009956
100.465353783519
100.465110030221
100.465902490246
100.46490816299
100.464072431999
100.463776780855
100.464246046142
100.464076703038
100.463830113509
100.463459832355
100.466144537352
100.465604722553
100.464190691539
100.461413345842
100.463352689174
100.467298488296
100.467597424084
100.466451800454
100.465202507079
100.465404546924
100.462822114865
100.462098424831
100.462270536984
100.461436868629
100.462018143537
100.461610144964
100.46184172019
100.462152194607
100.462681998224
100.46315940304
100.463967371304
100.464164483111
100.464852705914
100.465074269153
100.465704927274
100.465298853039
100.464570266755
100.463478472359
100.463304838956
100.462136360573
100.463440251375
100.464473594442
100.465836086959
100.466933888108
100.466736328028
100.465935546545
100.46558772122
100.46508427758
100.464818855477
100.463844148128
100.463351242506
100.462908461336
100.462768265974
100.462900174975
100.4625945431
100.46268771501
100.463053064787
100.462901933126
100.462295510358
100.461813835508
100.460769035036
100.460036429993
100.459608936326
100.461145509534
100.46087148419
100.460936862997
100.461421579513
100.463557386081
100.464715617499
100.464993828986
100.464794991815
100.464251304238
100.462745631287
100.463228441356
100.463053140378
100.462755522028
100.46222217806
100.46273852503
100.463899227719
100.464939782606
100.465982690256
100.466473961929
100.466677118541
100.466596623919
100.465998512436
100.465598570674
100.464978349375
100.464078811329
100.463637481659
100.463317550257
100.463410259578
100.463077954113
100.463022309145
100.463690809976
100.464019139494
100.464350694297
100.464919326247
100.465343044683
100.465939559527
100.466460105851
100.466356856037
100.466261338164
100.465945047822
100.464772138931
100.464325828499
100.465156425694
100.465713845685
100.463995079582
100.465307026231
100.462859609204
100.462874122629
100.45819050605
100.453673698635
100.455860010351
100.455230693289
100.453253289181
100.449360104278
100.447773543836
100.449238099266
100.449394125323
100.4494740882
100.450780327161
100.451152013154
100.453132044745
100.452450738524
100.454142574243
100.443711658631
100.446195636725
100.448766533791
100.452025811746
100.457128247594
100.462892342417
100.467470869271
100.464185840037
100.459817461749
100.443821094291
100.428036258897
100.45043647546
100.44283486669
100.435272737081
100.431973089971
100.431587755644
100.429781739835
100.418572187981
100.43079898553
100.445098596773
100.438789088659
100.444790483854
100.43982702616
100.437009156566
100.442728209473
100.43728139204
100.43691423935
100.442025641689
100.435759055474
100.438947452903
100.43591905845
100.443472757492
100.440042467315
100.448708896376
100.450585270913
100.455096816873
100.459821309872
100.463121973778
100.466516463423
100.464482225827
100.46478187898
100.465296231132
100.466124626321
100.463981990034
100.464530864176
100.46646442222
100.465913111029
100.464627261979
100.464247773897
100.46356174039
100.464034425233
100.458372488733
100.44685806992
100.435100094246
100.425572796973
100.416780931627
100.425305953185
100.420087516356
100.421334856294
100.413420467234
100.40957645904
100.406867306214
100.406568707283
100.408983919304
100.408979858227
100.415825036545
100.388589796168
100.37845774713
100.382853430517
100.390184690616
100.411328100269
100.41398432316
100.398159955364
100.382063304248
100.377646415352
100.348341015456
100.352007989909
100.356303331791
100.369597924956
100.360411817443
100.340452228736
100.305670657941
100.288277018012
100.324626075894
100.312185940582
100.309328364276
100.317390715819
100.346547203091
100.352557121748
100.340588659356
100.36606238872
100.387272607722
100.386509436865
100.385573014542
100.385539215038
100.385499869751
100.377742873811
100.401440121212
100.384845547453
100.400221108372
100.3977168081
100.404541988512
100.413861537828
100.427205461892
100.450379664814
100.45641313402
100.46240386619
100.464835395552
100.46367072965
100.458781809581
100.455999691447
100.435209784113
100.417998829829
100.38385881246
100.36078515397
100.3459923381
100.336945261221
100.334515735347
100.351413870021
100.340357091596
100.34202936948
100.330254479332
100.331877868292
100.330242276433
100.329716945024
100.334963512747
100.295094386345
100.285171274411
100.295434570597
100.324295182845
100.368163465364
100.396804571985
100.420329494619
100.438852791628
100.448780818998
100.454193605549
100.456439666301
100.456221517832
100.463528602231
100.497525510364
100.48147075788
100.476432215915
100.475428326971
100.477847599257
100.478107517765
100.483784541947
100.502241575114
100.490341369056
100.478067059652
100.475198848775
100.449623037857
100.432288564957
100.431192776837
100.435454203197
100.451187106096
100.439162345924
100.434008062108
100.429322760703
100.419060745039
100.419615530444
100.430369035661
100.431613829729
100.420978176868
100.42344121009
100.434251835822
100.438397493263
100.440981852289
100.451927636237
100.416832237303
100.415522305123
100.412053024942
100.404945632598
100.405630886512
100.413965549333
100.407508987329
100.406535377466
100.399914816317
100.394122504136
100.400865513316
100.40707491685
100.456270646917
100.463462664914
100.461399557743
100.464445840273
100.462425563982
100.469930821548
100.468760823946
100.471353355005
100.468799196465
100.466626439243
100.466010142825
100.466030557952
100.465551241605
100.467111765842
100.467183470252
100.467263452503
100.468659229136
100.471853595621
100.471537882448
100.472503952611
100.472704891342
100.472955790423
100.473164480578
100.473392823006
100.473468681591
100.473641985269
100.473995614143
100.474400709749
100.473511355992
100.46980412842
100.467316990945
100.466155263461
100.46577877289
100.465947739074
100.466799051134
100.468909206426
100.467879372641
100.466907497387
100.466525367066
100.467532943803
100.469465811592
100.471923086385
100.472336658476
100.472692225624
100.474267805896
100.473312784788
100.473539221462
100.473770456489
100.472940690933
100.473994051934
100.474708661723
100.474496777862
100.474932494075
100.474513421414
100.474295730025
100.474473166957
100.474743732688
100.474598384625
100.474751288377
100.474463572189
100.474382979168
100.474550978232
100.474432088431
100.474506963822
100.474240606791
100.474150866279
100.473970272319
100.473987141253
100.473569104175
100.473564812674
100.473369734668
100.473135781775
100.47308686105
100.472803602686
100.47279280364
100.472866245373
100.472656431492
100.472933804679
100.473174530676
100.473409756166
100.473617499472
100.473407867484
100.473736048415
100.473899544758
100.474029077071
100.474229264113
100.474132145659
100.474317142715
100.474125479321
100.474291172907
100.474457796431
100.474089047064
100.474118502565
100.473924645744
100.473665210079
100.473758880077
100.4737685604
100.474000401711
100.473790446179
100.47359057802
100.473052003713
100.471558477405
100.470244235576
100.472233022175
100.473236874094
100.471849716816
100.472629923809
100.472670485275
100.473049801774
100.473239228011
100.473232267398
100.473254497994
100.473369655326
100.473106100659
100.473470072102
100.473582608195
100.473268970327
100.4730953117
100.473046219429
100.473198768756
100.472971371078
100.47269908604
100.472449356326
100.472347211488
100.472551540798
100.472237252207
100.472540878825
100.472202021346
100.472096127015
100.471908176753
100.47213681878
100.471910228436
100.47173537415
100.471522789925
100.471381462933
100.471538688622
100.470161025139
100.470906864178
100.469941983972
100.469748315671
100.469414898039
100.470642555637
100.47110291997
100.47082416435
100.471199580396
100.471329729523
100.471470847188
100.471600838417
100.471663456758
100.471889117538
100.472007012177
100.471908442997
100.472106308821
100.471961549931
100.471971332226
100.472386608711
100.472566378391
100.472737018521
100.472475556727
100.472789907523
100.473080129305
100.472736485716
100.472845067079
100.472932417074
100.472621172473
100.471781814583
100.471614150261
100.471525229503
100.471244151583
100.470364064717
100.46984966085
100.470672723735
100.469668222237
100.470173566003
100.470719485892
100.471024053925
100.471179647861
100.471618581321
100.472856722693
100.472968701631
100.472483127797
100.472001224699
100.47157412224
100.47175199472
100.472192058091
100.471897109345
100.472036577682
100.472330854949
100.472222260296
100.471840882074
100.471860976342
100.471722969129
100.471690450115
100.4717141358
100.47174015227
100.47177244704
100.471597501033
100.471560954679
100.471462809007
100.471223438196
100.471214653468
100.470976184639
100.470456904376
100.470463410398
100.469873232078
100.46895656845
100.467872773752
100.468683044588
100.468408215928
100.46737977772
100.467189330425
100.466894442938
100.466713757878
100.467736337722
100.467448638935
100.466793897542
100.466947760583
100.467006539606
100.467263208703
100.466693757225
100.467788440805
100.468864263927
100.46815327224
100.469936738431
100.472155446382
100.473250827654
100.47390268904
100.473552728628
100.473899818041
100.473838278269
100.47378880887
100.473372949037
100.473304052897
100.473374343113
100.473959001198
100.472784723718
100.469762909299
100.468292607507
100.467249585353
100.466626817239
100.466492788005
100.466038752714
100.465484545908
100.465293023963
100.46511197993
100.465414942227
100.465186785468
100.465090119985
100.464980189718
100.465203900414
100.465685820256
100.465667359146
100.465697452705
100.465327860811
100.465027853897
100.464920502499
100.465251273303
100.465852849625
100.465557967898
100.465034648647
100.465226710267
100.465651786754
100.465527747005
100.466343400006
100.467798091395
100.466982745882
100.467676379125
100.468717738426
100.469897816322
100.469761592162
100.469477978256
100.46754667761
100.466305325738
100.465753847159
100.465727417848
100.466459393171
100.467846485009
100.468848035745
100.46912417507
100.468543612578
100.46769754234
100.467466018545
100.46688335815
100.466676855363
100.46646956681
100.465921428599
100.465675785845
100.46546689637
100.465512338323
100.465781238114
100.465799677219
100.465608254307
100.465466464511
100.465429116535
100.465425308305
100.465908849727
100.465322503567
100.46590425834
100.466518404177
100.467533817945
100.467226950227
100.466794344554
100.466075509947
100.465758701548
100.465126632224
100.465662810347
100.46532916574
100.465441411353
100.465611589087
100.465777757536
100.465772162201
100.46580136491
100.465753759667
100.465702804433
100.465715190069
100.46553428404
100.465463714522
100.465670063704
100.465488793286
100.46554273927
100.46552567514
100.465303947227
100.465025644033
100.464889922341
100.465443259305
100.465731574107
100.465356455767
100.46539595599
100.465523844139
100.465674264983
100.465717754123
100.465704373085
100.465595616915
100.465447489309
100.465467048405
100.465063490494
100.465073375164
100.465883959576
100.465582207964
100.466465700895
100.465674573657
100.465516058646
100.465354252854
100.465446708855
100.465638539787
100.465515467824
100.465431677254
100.465441912286
100.46529092706
100.465408560921
100.465670623003
100.465631870652
100.465423092578
100.465486842909
100.4655650833
100.465693415797
100.465531844303
100.465600562871
100.465815885837
100.46576000136
100.465753164924
100.465935637225
100.466108403483
100.466139401851
100.466090060684
100.465804656064
100.466041953402
100.466426847228
100.466525023345
100.466517155741
100.466277196776
100.466140988237
100.466155420342
100.46594955001
100.465817741712
100.465974059664
100.466293695504
100.466288997875
100.466357770596
100.465812024597
100.465527437063
100.465375028683
100.465679839672
100.465375803634
100.46541042829
100.465459098749
100.465362839812
100.465284139943
100.465311880713
100.465314787926
100.465331463961
100.465281202661
100.464801803285
100.464886864022
100.46534387999
100.465929380676
100.46611400922
100.467409597881
100.467083741564
100.467741265096
100.467127730406
100.466569501165
100.466656558705
100.466059134665
100.466061525595
100.465511053879
100.46557353098
100.465371318296
100.465369896036
100.465496590324
100.465508223593
100.465619055793
100.465534580724
100.465698123044
100.465852666841
100.465773674912
100.46579933708
100.46598314095
100.466171801422
100.46624998048
100.466387183119
100.466601752779
100.466357829165
100.466547352217
100.467161614671
100.467473857509
100.467606598435
100.467807386206
100.467080402628
100.466852528786
100.466779003532
100.466833927533
100.466542297246
100.466137096844
100.465846472211
100.465626650535
100.465440009975
100.465458036298
100.46474963393
100.465935508978
100.465579658736
100.46532192373
100.465719790062
100.466910236484
100.46702155461
100.46727863447
100.468172798346
100.469121520651
100.470731725234
100.47016882893
100.474425028708
100.470966948403
100.4876004773
100.483535986778
100.451056596554
100.41851551494
100.380192146631
100.359081489741
100.373588002973
100.370864256143
100.369042610879
100.36939884866
100.370268491177
100.37116818028
100.372281567587
100.37368044659
100.375191381065
100.376568885357
100.377709360702
100.378579671653
100.379166900965
100.378163032853
100.376944382308
100.375514302989
100.373939881391
100.372329018375
100.370780070577
100.369402185681
100.36824167486
100.367297848831
100.366528008859
100.365893898652
100.365432248345
100.365266364951
100.36552370102
100.36632115172
100.3677836244
100.36965954897
100.371419699951
100.372369394073
100.372467273591
100.372460693005
100.372556671647
100.372629556116
100.372634563816
100.372683496428
100.372725312618
100.372784605557
100.372833023325
100.373106838041
100.373229190644
100.373297324089
100.373167090478
100.373059469966
100.373050373031
100.372849881521
100.372749740157
100.372701384024
100.372638683305
100.372659698809
100.37259510332
100.372544776253
100.372539183384
100.372494260116
100.372450858731
100.372327897616
100.372352387495
100.37242938717
100.372454500927
100.372476389302
100.372516630927
100.372561410523
100.372528363181
100.372730336931
100.372828307814
100.373063944491
100.372994166639
100.372919593841
100.372700843174
100.372695188308
100.372647001612
100.37280395345
100.372671995811
100.372602399214
100.372440550849
100.372453629264
100.372412731521
100.372382905147
100.37233784348
100.372350048858
100.372277029809
100.372168345125
100.372091508976
100.372041050113
100.372132438189
100.372225925076
100.37224874426
100.37230329927
100.372290779773
100.372296695354
100.372335577348
100.372390709897
100.372399647177
100.372539140135
100.372559825045
100.372572416719
100.372543365849
100.372354109127
100.372459590946
100.372341230292
100.372442836355
100.372435586116
100.372324638452
100.372326438838
100.372298582245
100.372274812769
100.372241983456
100.372256132775
100.372192661396
100.372167646977
100.372058479247
100.371876546199
100.372079831739
100.372170527267
100.372169109237
100.372210044601
100.372201954746
100.372226772348
100.372240893848
100.372249665019
100.372218029112
100.372280712861
100.372227943896
100.372258571055
100.372298436862
100.372264613764
100.372206773793