/*--------------------------------*- C++ -*----------------------------------*\
| =========                 |                                                 |
| \\      /  F ield         | OpenFOAM: The Open Source CFD Toolbox           |
|  \\    /   O peration     | Version:  v1612+                                |
|   \\  /    A nd           | Web:      www.OpenFOAM.com                      |
|    \\/     M anipulation  |                                                 |
\*---------------------------------------------------------------------------*/
FoamFile
{
    version     2.0;
    format      ascii;
    class       volScalarField;
    location    "1.7";
    object      p;
}
// * * * * * * * * * * * * * * * * * * * * * * * * * * * * * * * * * * * * * //

dimensions      [0 2 -2 0 0 0 0];

internalField   nonuniform List<scalar> 
81489
(
99.9991970197938
100.00402118008
99.9972320943642
100.001500593221
100.006815749698
100.003489577611
100.00311182054
100.003163725383
100.003333710298
100.002949495428
100.003554535931
100.00664067003
100.010484911414
100.009319365609
100.007521444825
100.008525949148
100.005673469796
100.003290113955
100.003308271538
100.00568725336
100.008500114145
100.007477842533
100.009285571036
100.010439884232
100.006619167632
100.003524414548
100.002919049464
100.003309128011
100.003136892399
100.003081013166
100.003456367016
100.006795894865
100.010607052726
100.00945444353
100.007516001943
100.008527950976
100.005716262123
100.003356271815
100.003339379364
100.005702886734
100.008551244579
100.007562681821
100.009493304794
100.010645672445
100.003803966334
100.003092366017
99.9988154352799
99.9993267362677
100.000683704202
100.001102899583
100.001130705087
100.000706604275
99.9993079764234
99.9987807201058
100.003062804774
100.003776120981
100.001498660792
100.000431872223
100.001132157363
100.001369928817
100.001323293258
100.000996941838
100.000657826563
100.001633007777
100.003765332407
100.003038620894
99.9987544080854
99.9992648042826
100.000661115867
100.001085875833
100.001055986212
100.000630845205
99.9992873911474
99.9987920148881
100.003069701828
100.003791054403
100.001635274798
100.000670968201
100.001012912281
100.001340424123
100.001387628806
100.00114718916
100.000446826853
99.9972086307801
99.9993406601151
99.9992493397052
99.9879450320561
99.9903406189152
99.9904751052651
100.000783854553
99.9954050077669
99.9934902872123
99.9959110062594
99.9980674972822
99.9980977417343
99.9959140600476
99.9934414482943
99.9953647724086
100.000754425675
100.000763685982
99.9972367775772
99.9971981312922
99.9993356240109
99.9981802226913
99.9981564265664
99.9993843944992
99.9972803574845
99.9971216884053
100.000713935959
100.000761870167
99.9953496251676
99.9933922812384
99.995863266306
99.9980499181496
99.9980218277293
99.995850975313
99.9934361508508
99.9953878356499
100.000790671759
100.000747841498
99.9971194555961
99.9972925058858
99.9993906976914
99.9981733216536
99.9981979620639
99.9952599088525
99.9952111995566
99.9879877130719
99.95818721986
99.9581082175733
99.9525111871408
99.9534850468777
99.9586512273626
99.9890323784469
99.9960615646869
99.9953963371413
99.9953922958646
99.9959878622995
99.9986195000219
99.990474573093
99.9903037797352
100.004033610781
99.9992432715754
99.9952338305666
99.9951875442643
99.9989655704854
100.003613099183
99.9902923216785
99.9904748591051
99.9889717757924
99.9890093322732
99.9904788437271
99.9903295782711
99.9526427524145
99.9524193623614
99.9539281078822
99.9539173514591
99.9524052488144
99.9529337255181
99.9537606911308
99.9537821469115
99.9587006917531
99.9889967624462
99.9830951872826
99.9663865004212
99.9599565699583
99.9597978306446
99.9573449763289
99.9583994823842
99.9529528252413
99.9535856481764
99.9525667274376
99.958135617419
99.9879183635826
99.9879609452193
99.9582151552838
99.9526958347337
99.9536587154908
99.9587364367398
99.9586874264565
99.9535605837471
99.9529446784318
99.9583974279366
99.9582678640326
99.9575450843539
99.9575570290676
99.9583022897784
99.9584220862804
99.9573501269061
99.9586731557085
99.9586699350441
99.9592959256944
99.959255239262
99.9582969468188
99.9524263924837
99.9539448762508
99.9539575320887
99.9524438882996
99.9529636569302
99.9538078320839
99.9537856965454
99.9573472828004
99.9586536978435
99.9592857382709
99.9592355014396
99.958729022551
99.9587368254333
99.9592631389576
99.9593066762521
99.9572272837316
99.9570463732421
99.957048979078
99.9572312116828
99.9571719543031
99.9570348197081
99.9587347382562
99.9575639492271
99.9575518952112
99.9582638149858
99.9583733164543
99.9573425104839
99.9586491122438
99.9570144685277
99.9570147224141
99.9572055056569
99.9571529487557
99.9570314194532
99.9570362247087
99.9571734244322
99.9548117195318
99.9548528331639
99.9547847789168
99.9547878457097
99.9548575316547
99.9548165839526
99.9547690855939
99.9547563967346
99.9570286107043
99.9587260714031
99.9592299688875
99.9592671604201
99.9571956370686
99.9548012374996
99.9547277416258
99.9547274745756
99.9548048366459
99.9547846749333
99.9547572080817
99.9547654730144
99.9528310247391
99.9528818921016
99.9529118470632
99.9528614418682
99.9528657792414
99.9529197606636
99.9528993850494
99.9528411106456
99.9528168453688
99.9528232995355
99.9547799591744
99.9571516908029
99.9577181106253
99.9550791683981
99.9530970849779
99.952821039627
99.9527560226445
99.9527585540623
99.9528261681993
99.9528316960186
99.9528122123888
99.9510213779566
99.9510574330528
99.9511207332661
99.9511485124094
99.9511318376607
99.9511408359089
99.9511654526876
99.9511454689256
99.9510779948305
99.9510375814079
99.9510183131357
99.9510002656488
99.9509421712403
99.9509482381585
99.9509989002178
99.9510177585919
99.9490325814982
99.9490563568182
99.9491174902451
99.9492107774533
99.9492649264319
99.9492796629796
99.9492995318186
99.9492862223679
99.949258292794
99.9491634805571
99.9491011009467
99.9490521171419
99.9490084528817
99.9489428815626
99.9489607931812
99.9490035036991
99.946590137817
99.946607981727
99.946630433722
99.9467256028897
99.9469014278367
99.9470006932595
99.9470322906572
99.9470801203699
99.9470757953106
99.9470021686132
99.9468202479256
99.9467242501493
99.946647674922
99.9465556181091
99.9464471949001
99.9464928186901
99.943052619823
99.9431999199985
99.9432213647186
99.943242333898
99.943391281763
99.9436605105685
99.9438670936804
99.9439329015806
99.9440287812474
99.9440253395141
99.9438662557405
99.9435689803744
99.94338993572
99.9432836133976
99.9430886777331
99.9429571433468
99.937641869572
99.9377620588205
99.9375994704459
99.9375757094723
99.9378500266246
99.9382196296746
99.9384559942032
99.9388664574319
99.9392260045865
99.9393508044205
99.9390891180376
99.938759231904
99.9386368415493
99.9382656236543
99.9378276561545
99.9374332004455
99.922441758084
99.923778751958
99.9235882535749
99.9220774147559
99.9221708186037
99.9242567382032
99.9249596347991
99.9238100857274
99.9245388535834
99.9262047327519
99.9262657995945
99.9246495260211
99.9241537579041
99.9251097477484
99.9244382529662
99.9227824284953
99.9359465613248
99.9361108805289
99.9327065389858
99.9321673240071
99.9352933985948
99.9351366158255
99.9322831302255
99.9335825090543
99.9379688141443
99.9394757428518
99.9367033948889
99.9367733245259
99.9396669042771
99.9384116101439
99.934236813356
99.9331542106888
99.9920672913366
100.045099019186
100.001361903221
100.000506236603
100.04282765587
99.9895754427585
99.9882692821243
100.04180613274
99.9991602127394
100.000012246579
100.043712277323
100.076085288293
100.076728620908
100.046170139493
99.9920928221616
99.990626094062
100.114867078633
100.214248342106
100.170200797321
100.171206906038
100.146637960327
100.142374654295
100.14262451944
100.005546453445
100.050043205864
100.082755484684
99.9961328882146
99.9960393970786
100.050080107871
100.005808944008
100.004686963006
100.04741843326
99.9933123027181
100.078665049981
100.077902666648
100.172029768174
100.144690177778
100.138066716414
100.136414572277
100.140709630592
100.167101024624
100.16723048663
100.140486540727
100.135747723013
100.136786543896
100.143093597149
100.233953714225
100.272803562997
100.251689412269
100.252801172654
100.275281679534
100.271111623471
100.239335745383
100.33323810864
100.366781232852
100.338819816887
100.334736337423
100.336925947119
100.350061555779
100.286286270487
100.242835695846
100.272072761086
100.339222286042
100.374373545747
100.394590081164
100.39868945219
100.399606421434
100.401794312398
100.401233536145
100.399457670701
100.398272678246
100.397823901247
100.39809457067
100.39856037422
100.399222993146
100.400067220509
100.400949982407
100.401728343722
100.402457008114
100.403322751971
100.404639382233
100.407035040606
100.411805016008
100.42027267287
100.436472226585
100.460411867405
100.499013782839
100.493618078158
100.429945059588
100.373120013897
100.315538771285
100.282948826066
100.304113906507
100.303523189023
100.301197064627
100.301488292946
100.30257699197
100.303686281879
100.30495656273
100.306596986146
100.308555844962
100.310612502225
100.312482459735
100.313897203084
100.314629444124
100.313429473633
100.311968736231
100.310307713602
100.30857097249
100.306821241424
100.305061996536
100.303339386578
100.30176580491
100.300453863253
100.299424031397
100.29864812059
100.298090893993
100.297693942095
100.297410058845
100.297199573263
100.297040415378
100.296938777709
100.296913355699
100.297005242804
100.297284859343
100.297846401373
100.298966626853
100.300553770513
100.302033118018
100.302495141608
100.302419773654
100.302525764251
100.302432555561
100.302606642631
100.302494692095
100.302541876253
100.302464422811
100.302367453077
100.302138591071
100.301867695763
100.301875061047
100.301920807369
100.302269174993
100.302236509517
100.302162567853
100.302357671502
100.30244637231
100.302505787443
100.302481404992
100.302562943178
100.302431416987
100.302489098585
100.302402472557
100.302462825297
100.302097737096
100.301291272228
100.30224140574
100.302460536739
100.30241466252
100.302471310076
100.302436331875
100.302544382009
100.302478657088
100.302489655077
100.302442914435
100.302353880127
100.302389016511
100.302237257832
100.302346403047
100.302525803595
100.302502999915
100.30252440168
100.302454971588
100.302486631434
100.302483684541
100.302536717627
100.302443941511
100.302463921644
100.30241808009
100.30245471123
100.302228743821
100.301858925956
100.302394419613
100.302463807819
100.302448795195
100.302472180182
100.302461693307
100.302536989154
100.302510720156
100.302512350536
100.302525689009
100.302524642262
100.302616923151
100.302635673274
100.302600692847
100.302293853513
100.302054749859
100.302328505197
100.302627033447
100.302543539772
100.30273166014
100.30275626436
100.302687325253
100.302566648974
100.302608961881
100.302562689562
100.302487834342
100.302485522925
100.302475556682
100.302510319439
100.302418502707
100.30253340165
100.301903201469
100.301091613634
100.302207600244
100.302523404891
100.30248177629
100.302528004416
100.302543172937
100.302514729874
100.302553805435
100.302620040343
100.302633588399
100.302621754101
100.302619621135
100.302769853099
100.302869950725
100.30285950405
100.302744123982
100.302901075487
100.303095127941
100.303006556249
100.302977502414
100.302858223902
100.302682918346
100.302660906984
100.302673747783
100.302621089875
100.302578270501
100.302546226152
100.302573827499
100.302591468179
100.302522868528
100.302570004428
100.302238266
100.301925094691
100.302487353586
100.30263344733
100.302581618849
100.302635496902
100.302616383431
100.30265894305
100.302665821402
100.302716266637
100.302754427429
100.302794433124
100.302984398286
100.303168919131
100.303091936115
100.303189158163
100.303057059912
100.302837878922
100.302867023031
100.303121388627
100.30330656876
100.303340499366
100.303222112603
100.303026226313
100.303292170377
100.303386197295
100.30352073245
100.303596165768
100.303593570833
100.303470670139
100.303387982707
100.303203635023
100.302928449892
100.302890797892
100.302800691679
100.302746365486
100.302713062454
100.302739584673
100.302682944621
100.302639115101
100.302693987836
100.30244168201
100.302407532402
100.302690929796
100.302743932362
100.30270351227
100.302735920052
100.302844323722
100.302790385133
100.302857598515
100.30286470291
100.302889157668
100.302941549296
100.303003065423
100.303285047517
100.303477470021
100.303590080742
100.303565217747
100.303557007989
100.303402508709
100.30338374705
100.303155511263
100.30305609398
100.302971599059
100.302939533163
100.302889013927
100.302833335288
100.302860317469
100.302852538205
100.30286056652
100.302796461382
100.30258038259
100.302782746971
100.302822309802
100.302854353168
100.302924771456
100.302899022177
100.302906897608
100.302990669656
100.303066942865
100.303085502119
100.303182381774
100.303466202882
100.303620119485
100.303628629158
100.303538542821
100.303334320046
100.303573629758
100.303605977382
100.303753853591
100.303747337692
100.303651748836
100.30352145494
100.303291573105
100.303207001334
100.303085237662
100.303123128677
100.303083176317
100.30301409748
100.303029286399
100.30297712818
100.302921858121
100.303003506311
100.303013806987
100.302684126116
100.302786984521
100.302969559522
100.302836129196
100.303054309004
100.302976346507
100.303085311439
100.303036671625
100.303120427933
100.303175561867
100.303234020139
100.303357414457
100.303387191289
100.303587947898
100.30374991087
100.303714660606
100.303746073505
100.303601343158
100.303643436404
100.303792906608
100.303874448606
100.303823219582
100.303978036828
100.304048552096
100.304023019979
100.303904349135
100.303758904321
100.30352366297
100.303410168616
100.303329438117
100.303296283707
100.303220090239
100.303164738937
100.303266334242
100.303067252501
100.303127739116
100.303080664732
100.303093736768
100.302709575285
100.301950370771
100.301000607938
100.30223006891
100.301455825552
100.300563021067
100.299599281084
100.298804383637
100.300323636666
100.299576282617
100.298236494219
100.297496138936
100.297092806705
100.296911846434
100.296880716077
100.296952984738
100.297098918801
100.297300235184
100.297568689106
100.297937713386
100.298451287969
100.299174247519
100.300152804777
100.301429604471
100.302977116499
100.304676129587
100.306385346595
100.30806459893
100.309728269208
100.31132740441
100.312730003497
100.313890353803
100.314741220377
100.315494528056
100.315796671067
100.314925985023
100.313708248012
100.312223728301
100.310545191425
100.308787973813
100.307022594279
100.30526289331
100.303552383823
100.301980602888
100.300658505693
100.299595724106
100.298793019215
100.29820776524
100.29778881324
100.297487498497
100.297263605337
100.297090403639
100.296967861754
100.296906196021
100.296947983021
100.297165006186
100.297647417699
100.29867153375
100.300192595177
100.301838094551
100.302496286666
100.30254501914
100.302583870419
100.302585359874
100.302674029321
100.302544883679
100.302664220872
100.302579097623
100.302493680744
100.302253632463
100.301936822195
100.301894861708
100.301376207648
100.300762946352
100.299979956202
100.300076258265
100.300283672233
100.300551414967
100.300979115134
100.301526757152
100.301443267327
100.301133162837
100.300929590636
100.300821820824
100.301387272795
100.301474993671
100.301653185167
100.301934139288
100.302174665737
100.302386432709
100.302060625416
100.301737402896
100.301296351236
100.300712923885
100.299785981249
100.300296514788
100.301048303607
100.301051296119
100.301575119899
100.301779808305
100.301298487438
100.301717197553
100.302024991709
100.302476967269
100.302417908841
100.302215613424
100.302590611161
100.302752567402
100.302967377242
100.302640495712
100.302298807231
100.301874906276
100.301148181101
100.301591498225
100.302075978036
100.302156428122
100.302674883011
100.302971010775
100.302476201324
100.302689798387
100.30305140847
100.303115892103
100.303403910517
100.303271548396
100.303025625032
100.303145109989
100.303119889788
100.30297956181
100.30276064685
100.30275393773
100.302718672418
100.302684381606
100.30260276213
100.30254681847
100.302476383892
100.302456392317
100.302458470178
100.302442545146
100.302413834742
100.302410755518
100.302402399492
100.302390371421
100.302379119035
100.302505466722
100.3024419264
100.302604971813
100.302433891116
100.302652000594
100.302512661355
100.302602087994
100.302516763615
100.30242790442
100.30218095744
100.302065893566
100.302301366156
100.302486233232
100.302568222694
100.302611793558
100.302631405475
100.302653746562
100.302628752202
100.302544925785
100.302283755731
100.301986304987
100.301428010383
100.30083978099
100.300006851932
100.299967271348
100.298837122964
100.297648601534
100.295786630418
100.295944036591
100.297502391928
100.29775815262
100.298879295731
100.298898395856
100.297794724419
100.298330495814
100.298846831771
100.299388591401
100.298014773205
100.296958268562
100.295340579632
100.296750866066
100.297331058608
100.298074463224
100.298707284764
100.299247508815
100.300061096306
100.300195030013
100.299835610506
100.299060755729
100.298338461752
100.29809992955
100.298799381614
100.298339598259
100.299386480495
100.301639189496
100.302050902873
100.302136587
100.302091971493
100.301971001826
100.301868429113
100.301733274628
100.30190063494
100.301645845847
100.301569016074
100.301759129868
100.302480399421
100.302564462938
100.302609652515
100.302641825541
100.302586833898
100.302688390884
100.302695748326
100.302660443195
100.30263309171
100.302554076859
100.30226146755
100.302014149713
100.301400358941
100.30083033387
100.300021500369
100.298729510828
100.297647107237
100.29562857234
100.295639840138
100.293146633447
100.290085664647
100.290544465244
100.29115127949
100.292260338425
100.293358941274
100.294354586336
100.292171087633
100.290235141082
100.291994591151
100.293549930632
100.294469931507
100.295736860604
100.2958157547
100.294986640231
100.293596908203
100.293031403668
100.294439142832
100.295838686938
100.296418622459
100.296111614922
100.297468002926
100.29879935542
100.301214416387
100.301759389583
100.301518288349
100.30056774834
100.301316835241
100.301172283966
100.300181225649
100.301082048426
100.301080065837
100.301562591826
100.301750279221
100.302477266496
100.302568094863
100.30261495176
100.302646804115
100.302588332811
100.302664315167
100.302561648616
100.302685953526
100.302600191794
100.302528546385
100.302247339025
100.301997960423
100.301407422752
100.300795825066
100.30000491554
100.298769070728
100.297675068316
100.295765910037
100.293360069578
100.290415560089
100.290037047859
100.286255777767
100.281947043647
100.25977260911
100.259270608535
100.263130724448
100.280360802002
100.282923241463
100.281944410947
100.286274466596
100.286918079602
100.287750505668
100.281677952037
100.285379787386
100.287975408454
100.284411214463
100.279785891144
100.272022904875
100.279434785111
100.284671832967
100.284551154263
100.287292818721
100.289474315977
100.287537789199
100.290542511459
100.292023746726
100.293451765048
100.29463511656
100.294556842799
100.292965033375
100.291663175822
100.291288919091
100.292693907634
100.293934029554
100.29451286534
100.294970843523
100.29323838197
100.294158033549
100.294390631072
100.294550616647
100.294555969171
100.294888282716
100.294504178845
100.292739825358
100.293614336331
100.292184254409
100.295432551699
100.293873484606
100.293737399417
100.294045442005
100.29398693544
100.293587124214
100.294228387284
100.294094190666
100.293650116835
100.292488027366
100.291691298073
100.293511108951
100.292195687968
100.292164477295
100.292510444967
100.292931882002
100.292281169885
100.291940270765
100.291977031297
100.298631431027
100.298089575322
100.297983318239
100.298242295866
100.299863102905
100.301942575014
100.300377723512
100.299924067246
100.30030923187
100.296931488562
100.298318980154
100.297026946437
100.294991367644
100.294460388924
100.296288058254
100.297865201395
100.296858911299
100.296726661835
100.295574353507
100.294840353684
100.295480624697
100.295536570452
100.298710860836
100.300182145601
100.301690708215
100.302278094491
100.302421278818
100.30238953932
100.30212822649
100.30202675579
100.301697514911
100.301456330529
100.300829856554
100.300127050656
100.299782920951
100.2997651953
100.300172265236
100.301808776192
100.302487504585
100.302556222857
100.302596424148
100.302600733969
100.302689549576
100.30268726364
100.30253648625
100.302640211796
100.302547935733
100.302465803611
100.30220883856
100.301919679798
100.301397791083
100.300766991376
100.299951123882
100.29889608013
100.297701619508
100.295935914664
100.293737943056
100.291067082968
100.287775571833
100.281684036563
100.280278485368
100.263789053386
100.245417242886
100.168220858947
100.183564258561
100.202111554113
100.205434545059
100.201533066994
100.19641703805
100.206906079823
100.20350365592
100.1981327311
100.209275760076
100.205736280429
100.198814067187
100.208636491576
100.205290555894
100.198118537736
100.207488288118
100.204152930885
100.19701655291
100.206134600607
100.202851371127
100.195941031938
100.204037624047
100.201833548384
100.202368623792
100.201776677377
100.200512424698
100.200527773985
100.200758745476
100.200274512929
100.200263749574
100.200623699731
100.200141401808
100.199832583824
100.200358930403
100.200290125005
100.200013006249
100.200090094248
100.200262495408
100.200420795018
100.200900362962
100.20057587381
100.200255906759
100.199979384056
100.200554051603
100.200422388004
100.200090295918
100.199399072838
100.199340387544
100.199967123863
100.200347958173
100.200522586648
100.199957871667
100.200254705571
100.200580681221
100.200901985171
100.200421354505
100.200258021959
100.200086569556
100.200029054185
100.200294119204
100.200367029735
100.199826660096
100.200132742251
100.200613080728
100.200274559496
100.20029014849
100.200694693286
100.200478415661
100.200474044407
100.201726252588
100.202283174547
100.201761030897
100.20394120628
100.203156279391
100.204227484721
100.20258895005
100.201819831581
100.203459150634
100.203143049045
100.201671611958
100.201284776327
100.20154908345
100.199129766373
100.199947816101
100.200402650238
100.200486532031
100.200560102404
100.20029957964
100.19984343637
100.20032448646
100.199546079322
100.199556184398
100.200620098659
100.199622675013
100.201343977525
100.200874342546
100.200819410007
100.200521869567
100.200603163376
100.200455631761
100.200434940538
100.2004784689
100.20095177543
100.200292324565
100.200192585991
100.200156759173
100.200302129238
100.200837330506
100.200391696249
100.20040327818
100.200445383303
100.200559758631
100.200163320189
100.200305673516
100.200782243459
100.201540732618
100.200095495578
100.20010361003
100.199913566553
100.19993120976
100.200140200104
100.200096228378
100.201519983979
100.20079475074
100.200308395183
100.200147196326
100.200552821119
100.20074684331
100.200909172637
100.200920247494
100.20073306712
100.200600507238
100.200649090344
100.200639669175
100.200606410105
100.200721795376
100.200388382203
100.200396362654
100.20044223551
100.200978584644
100.200139078355
100.200354165209
100.201824406569
100.201346033493
100.201538467233
100.201148520726
100.202355856889
100.201671557259
100.200886370378
100.201262726216
100.201506732564
100.201512021613
100.201222558417
100.200849566229
100.201661289335
100.202323105385
100.201135049661
100.201528714212
100.201355314858
100.20182514495
100.200867238003
100.202641470015
100.201930260083
100.201819426819
100.200777522254
100.200692783157
100.200035274481
100.201123418641
100.19976575926
100.200866206307
100.20144201159
100.200424646143
100.201669945219
100.201217856327
100.203097299035
100.204064163528
100.20103950968
100.195872748431
100.202721305549
100.206016286097
100.196916146399
100.203992581097
100.207345852008
100.197958107261
100.205112543985
100.208501637259
100.198604966568
100.205552770915
100.209212610145
100.197957269037
100.203326066988
100.206731355411
100.196353284161
100.201778641218
100.202275974453
100.19961453454
100.196887101567
100.196892594853
100.201929046368
100.199490382868
100.197645882718
100.193757112779
100.198438243753
100.198374367303
100.193582057467
100.185816023774
100.185737218263
100.164393577911
100.237526059297
100.236676487165
100.164775038631
100.168390286481
100.183667409149
100.202041552957
100.205392082814
100.193335840321
100.188551740083
100.193719157749
100.191830719575
100.197841552674
100.205959067363
100.202017362455
100.202316490144
100.206243037051
100.203044143092
100.202410279127
100.204939567186
100.202233943468
100.201698304319
100.203346506646
100.201127603273
100.200845932554
100.201792240402
100.199926261297
100.203771551103
100.202824534673
100.20110243857
100.201668079019
100.203012102721
100.201655218885
100.201290020469
100.200400275261
100.20260379329
100.202677947068
100.200209406936
100.204183413512
100.204681704967
100.201683962583
100.205021779438
100.206241947666
100.202759514133
100.206037051756
100.207039951138
100.203668202274
100.201563666482
100.186551983828
100.176359255471
100.177709198092
100.187133853917
100.184653376984
100.183318564729
100.190308236006
100.178127603059
100.182111635693
100.175871205789
100.175940795956
100.182339619274
100.22893379666
100.254494383674
100.230735123888
100.159011800025
100.160312945049
100.185169404381
100.151961979285
100.136508334781
100.205552207885
100.247782974316
100.270716177744
100.279891093506
100.285781318033
100.288003345446
100.287720654122
100.283042301978
100.275348979709
100.26171112326
100.268694462243
100.277125545951
100.284482128215
100.288118318492
100.291317621053
100.293928608527
100.293927442932
100.296294366326
100.297841873989
100.297067656626
100.296887629421
100.296856197344
100.297050688956
100.300092012227
100.300496672684
100.301851590614
100.302492559299
100.30244859513
100.302627665347
100.302444830272
100.302441637882
100.302645960128
100.302519335515
100.3025775968
100.302491244992
100.302387671022
100.302155640945
100.301871190841
100.301388653728
100.300820916563
100.300027565785
100.299015028358
100.297894020728
100.296192534767
100.294373380756
100.292162716942
100.289440962238
100.285327006161
100.28103433555
100.274459862042
100.254692680084
100.22889267783
100.183639973825
100.177176522683
100.176731240983
100.182762951522
100.193857870128
100.188439751951
100.193086676551
100.19207715146
100.198162155312
100.205948808411
100.201859973847
100.202262163363
100.206164876642
100.203015828769
100.202440872764
100.204904785098
100.202230087511
100.201755052718
100.203348477729
100.201138971353
100.200912304913
100.201775059549
100.199973248398
100.201802072629
100.204091875664
100.20311038618
100.201683822015
100.201279239489
100.201587366383
100.201796675268
100.203394613243
100.203136056707
100.204273459763
100.20261471719
100.202201411932
100.202886674805
100.201369276565
100.200831885089
100.202163177216
100.203803642008
100.20285421034
100.201117253256
100.20167381456
100.200427363327
100.20145615242
100.200860881622
100.19977433738
100.201137323493
100.20003805221
100.200693957688
100.200776410182
100.201843437214
100.201961658606
100.202684601331
100.200874245147
100.200210773858
100.20086339523
100.200210588526
100.200774273078
100.200425296096
100.200865165133
100.201516024012
100.201123563455
100.200491097487
100.200544075484
100.202966753763
100.205037395359
100.202681972558
100.201818940951
100.20200970497
100.2024213508
100.202179358749
100.202625903306
100.202639050099
100.202124887745
100.20237407079
100.201982144225
100.202651325047
100.205035716885
100.202979736964
100.202980697454
100.203824651442
100.202875551691
100.201975516052
100.201897166302
100.202303558389
100.201375079846
100.200546493031
100.201984333825
100.201325277991
100.20004761971
100.202521442822
100.202914306109
100.202165271394
100.201944530745
100.202619710761
100.204316729435
100.203597002328
100.202536743399
100.203325665875
100.206162204391
100.205459516716
100.202328190942
100.202957385746
100.207818431228
100.208457477257
100.201395662395
100.188632752006
100.182684026743
100.176993193869
100.18003965751
100.181010204942
100.184718580598
100.185503167949
100.181720258447
100.173731021857
100.173329287283
100.173755337537
100.169873026465
100.159209103643
100.162142915772
100.177863721267
100.175318425378
100.177086091863
100.195787851898
100.198440799645
100.210860284404
100.229855749075
100.217978021571
100.223333852068
100.243002044549
100.261824228152
100.244283488972
100.264812808407
100.276103359947
100.281117025644
100.274644607224
100.273878339305
100.281551982474
100.287253321593
100.290833912149
100.29349217605
100.293137067172
100.292664183942
100.292313426063
100.296842740383
100.297544661375
100.298013831031
100.295975323506
100.296733141504
100.298939245696
100.296685693458
100.298746898725
100.299524970887
100.301444368523
100.301657905378
100.30135706571
100.301997363831
100.29927355291
100.300275998384
100.300255914466
100.299509288956
100.300135371028
100.299495108077
100.299531198325
100.299435936639
100.299447989244
100.299560806812
100.299906356154
100.300008809029
100.300261435339
100.300440666479
100.300331440316
100.299872573545
100.299270006487
100.299081744769
100.299392149717
100.299552845636
100.299644506775
100.299538519403
100.299531829528
100.299573164347
100.299469462302
100.29949514569
100.299355104826
100.299270299941
100.298635643338
100.298888350337
100.299020238617
100.299368118784
100.299682286064
100.299710137359
100.299416285318
100.299159210418
100.29942927291
100.299653011865
100.299629246131
100.299405567528
100.299816942005
100.299523935169
100.299392303024
100.300172369343
100.30084356396
100.300359188519
100.300361173339
100.299978403554
100.299524651195
100.299336549426
100.299997221437
100.300585453796
100.300555817267
100.300004582022
100.300285170159
100.300753759949
100.300683614962
100.300562039114
100.300052158807
100.300126673682
100.300687901498
100.300722374454
100.300914437084