/*--------------------------------*- C++ -*----------------------------------*\
| =========                 |                                                 |
| \\      /  F ield         | OpenFOAM: The Open Source CFD Toolbox           |
|  \\    /   O peration     | Version:  v1612+                                |
|   \\  /    A nd           | Web:      www.OpenFOAM.com                      |
|    \\/     M anipulation  |                                                 |
\*---------------------------------------------------------------------------*/
FoamFile
{
    version     2.0;
    format      ascii;
    class       volScalarField;
    location    "0.9";
    object      p;
}
// * * * * * * * * * * * * * * * * * * * * * * * * * * * * * * * * * * * * * //

dimensions      [0 2 -2 0 0 0 0];

internalField   nonuniform List<scalar> 
79587
(
100.071596394782
100.073541046416
100.070165255603
100.074512214771
100.081553829996
100.081669383862
100.079624854099
100.080149658191
100.080262655352
100.08063679605
100.08092398272
100.080736034148
100.082614218377
100.082302165483
100.084639860774
100.084597453391
100.081279412187
100.076632427999
100.075614252136
100.075611018966
100.076601012305
100.076317667214
100.075535916703
100.077080720323
100.083489777498
100.083388242753
100.077731768502
100.076063273931
100.07603681435
100.075220060391
100.07509307804
100.076161490484
100.076073414755
100.077688787504
100.083152106948
100.083056158947
100.0768820272
100.075497614802
100.076307412317
100.076378607358
100.075475592154
100.075480399304
100.076547990319
100.081112704874
100.084256022095
100.084112419163
100.077214083425
100.076761887902
100.074475472503
100.073766625257
100.073894070467
100.073761333233
100.073168404668
100.071846453368
100.072963399797
100.074280622844
100.074379137261
100.07347187977
100.072505690205
100.071281298481
100.070951583968
100.071541638887
100.07146533876
100.070789679407
100.071291704206
100.072486763622
100.073316662977
100.074402050528
100.074477776323
100.073062816017
100.071984759984
100.073339095434
100.073832528701
100.073937351194
100.073724190643
100.074429490708
100.076968231476
100.077690483759
100.075280957123
100.078182427856
100.081097634121
100.082449184901
100.080126802241
100.079936275828
100.081328736353
100.07961011389
100.077248734574
100.073018913782
100.078296082422
100.067065848565
100.056064567188
100.061833354282
100.062929459725
100.073873531285
100.069544121679
100.070173241145
100.072497595774
100.070622133078
100.069139897599
100.068554548392
100.071274528354
100.073091191335
100.06895028711
100.068187948272
100.070386232564
100.067124627612
100.066012872583
100.067243823702
100.067245150041
100.066058171134
100.067133923039
100.070327469505
100.068059168652
100.068494102691
100.073132714909
100.071708537375
100.068840298613
100.069280375666
100.070668638603
100.072488991855
100.07007451019
100.069381726751
100.074131510617
100.074156340522
100.071137684587
100.074249804658
100.080461135538
100.085149631771
100.078093671596
100.078037101664
100.082842613357
100.098785946693
100.068483674831
100.069004711705
100.05331452047
100.02632993135
100.027266921187
100.023093251777
100.023392925411
100.02968091568
100.061099005468
100.072305674626
100.068011031348
100.067751229548
100.074442795653
100.062661718018
100.06335727937
100.06318949105
100.063419190746
100.071176289252
100.06671343557
100.066695481749
100.071112879135
100.063436556695
100.063249921682
100.063386490426
100.062518391813
100.061222205235
100.063224946811
100.06118343057
100.021551621951
100.023970809181
100.024778845747
100.024415527396
100.023811206527
100.023899404253
100.025373212242
100.025988518785
100.030117254478
100.027365897531
100.02835214212
100.031862248344
100.031866280031
100.028395045862
100.0273741756
100.029920534672
100.029425377327
100.022820393195
100.023636080754
100.030207900327
100.030885937993
100.029484558855
100.029137270706
100.030411978395
100.030318579573
100.0295016428
100.029829276171
100.030077908168
100.02504534294
100.025865163368
100.027093522026
100.027048695971
100.025777630763
100.024876389727
100.025781563625
100.025115756266
100.029306311925
100.0306486099
100.031245978157
100.03140440182
100.030784569342
100.030889008354
100.03154862331
100.031429204323
100.030862690076
100.031054126367
100.031205330246
100.031206881722
100.03039951417
100.030049544951
100.029988321762
100.030244820058
100.029797708351
100.029600762833
100.030845752118
100.02911281548
100.028946226208
100.029137954425
100.028971313334
100.029264648832
100.029586030839
100.029463899198
100.029319018681
100.029101394588
100.029265552222
100.029246005665
100.029241000055
100.02912055295
100.030859960385
100.03081410596
100.031093779995
100.030997380978
100.029107214743
100.026779965484
100.026821074148
100.026721673719
100.026827276263
100.026766709993
100.02658660752
100.026608677085
100.026817184502
100.026861729401
100.026753653328
100.026891105115
100.026847244703
100.026908892568
100.026862205919
100.026842097785
100.029092424702
100.029210030135
100.026882723238
100.024947500354
100.024862177246
100.024903798767
100.024848243496
100.024958911963
100.025077126009
100.025184487382
100.024926648918
100.02468815423
100.0248502857
100.024759826123
100.024882319582
100.024851402179
100.024943672186
100.024921708304
100.024917344276
100.023180974986
100.023201549702
100.023116870393
100.023154849273
100.023111663041
100.023155541434
100.023055470632
100.023325552962
100.023195921901
100.022858603166
100.023055981276
100.022941968057
100.02305577309
100.023032977185
100.023154369821
100.023166950766
100.021313313687
100.021341348912
100.021328430401
100.021202897082
100.021233549804
100.021176474377
100.021183145879
100.020961553661
100.020635045334
100.020694259788
100.020989038022
100.021082808588
100.020984920323
100.021089574255
100.021071143623
100.021259172258
100.018979472527
100.019092003929
100.019118294799
100.019050571304
100.018852942982
100.018878127106
100.018776992354
100.018791617182
100.018778486598
100.017998413304
100.018033556091
100.018747932884
100.018653720609
100.018647887514
100.018724774508
100.01871228145
100.015320773915
100.015836300109
100.016076734957
100.016076230166
100.015852368423
100.01540854907
100.015683093848
100.015533818959
100.015298221173
100.01573008217
100.014314382293
100.014303099225
100.015674424244
100.015198850546
100.015515486938
100.015559122504
100.010849529184
100.009444876364
100.010606747669
100.011463652936
100.011410220642
100.010532405156
100.00938853659
100.010864665368
100.010832833759
100.009212305269
100.011067510838
100.007797259804
100.007777864718
100.01113237866
100.009285153088
100.01091706604
99.999648151293
99.9987665979607
99.9926524896454
99.9949423254111
99.9987810886951
99.9986320683489
99.9946059382973
99.9924584749612
99.9987103205814
99.9993407091394
99.9925342307854
99.9975714614277
99.9933750786537
99.9933825658849
99.9977242563968
99.9932131832397
100.000863762551
100.008047783896
100.005444897891
99.9980545481645
100.003843162203
100.005659554221
100.005467685287
100.003448501258
99.9974274280129
100.004904734797
100.007431985946
100.000276381681
99.9974045699547
100.029858978093
100.053215264829
100.053110324033
100.029999231711
99.9958430148978
99.9960881328712
100.089294688642
100.174773110739
100.112970809214
100.113430176127
100.098558802383
100.085536849708
100.073176072371
100.068900897013
100.062599661807
100.060434572145
100.071871717404
100.06421161003
100.063997178224
100.071320528419
100.059791328871
100.061853182948
100.068203203243
100.072222450263
100.084503816832
100.097267750994
100.190777860162
100.209450029305
100.210047958618
100.191930881648
100.192059673263
100.18101505029
100.204057348882
100.243119880455
100.155563317975
100.154134928714
100.203919830012
100.167354060973
100.191486550037
100.215625710432
100.156367022003
100.156112419877
100.215204654673
100.190895007032
100.166449465754
100.202669870326
100.152372939377
100.153666358079
100.202534490644
100.179886231088
100.190646225257
100.281954244673
100.328680795963
100.300410519036
100.3009052492
100.330291174904
100.301662110709
100.283751102703
100.407226914326
100.436533590578
100.392552203503
100.409230109412
100.407132530141
100.360845536164
100.303204207001
100.330428601368
100.278954780457
100.39937324803
100.43270344063
100.388671266921
100.387963557962
100.313978978268
100.313594565223
100.242849117309
100.291430237993
100.376482210827
100.421761501309
100.387349947656
100.392076139169
100.327618268922
100.280024533733
100.320052725453
100.299711697546
100.303767688305
100.327760267267
100.238450043337
100.238360262039
100.327774083047
100.303590213388
100.299269690366
100.319190768218
100.278756125096
100.326505124106
100.312544154918
100.312530529885
100.328592506211
100.301319628524
100.300030499992
100.358536690817
100.406963359954
100.390744039096
100.406148458041
100.436542435464
100.437134270045
100.40742029214
100.378950887494
100.378369916599
100.453989480166
100.4743315757
100.466035820631
100.466702587108
100.467098656392
100.455719760839
100.441777005083
100.481956438801
100.480154395486
100.477474610491
100.474275887312
100.46861917026
100.465248462003
100.450887133849
100.446755218135
100.447822256347
100.453768284336
100.426550336288
100.424086117911
100.423731558019
100.430904955645
100.451063027611
100.449531536705
100.428917424507
100.387842322828
100.395518574728
100.373520295591
100.406626572311
100.394755119539
100.394703548518
100.406385526333
100.37299968275
100.394763242965
100.387000860184
100.391058697718
100.386203760464
100.386741074967
100.38673182208
100.405050744992
100.444812447485
100.448934018906
100.454274654508
100.467074987195
100.476963694481
100.474786246275
100.480342893025
100.48099860321
100.474969641361
100.474070957806
100.473360719378
100.477338594437
100.473103933484
100.475990207548
100.476605874603
100.480075218448
100.475469922215
100.478628759122
100.478516727841
100.478136309506
100.478036958865
100.478966042774
100.476476794141
100.47878250405
100.478304405097
100.477109242845
100.475301105697
100.473526414835
100.468970555173
100.46901808615
100.462527589794
100.477681621515
100.476964166358
100.47371751169
100.473186269643
100.473103973536
100.46928694304
100.468098752589
100.471933642174
100.454432909499
100.45487334481
100.458254421055
100.472836934986
100.466714727112
100.46497671816
100.463728279014
100.445742881981
100.439571903092
100.445499095843
100.430500115729
100.430608173105
100.445594677646
100.439553572032
100.44554747527
100.428150120019
100.448576651057
100.450261301026
100.429905691093
100.422927325563
100.423317448698
100.42496398802
100.446107478473
100.460493336358
100.467424871873
100.466739700095
100.472487171945
100.476437576441
100.47411661547
100.477836707839
100.47580195581
100.476184743355
100.476276078917
100.477407651376
100.477540247866
100.477569837088
100.476469439384
100.476720132609
100.476863771288
100.475754630703
100.476991042197
100.477134863039
100.476717065841
100.478040923543
100.477613898371
100.476361663389
100.476640114153
100.475896968534
100.475417066447
100.47659389818
100.47693967841
100.476949469863
100.476374154569
100.476668467908
100.476228736385
100.475612367602
100.475874790333
100.474635492103
100.47472028476
100.474360728602
100.474061338275
100.47395248261
100.474146231922
100.47326658563
100.472509652915
100.473486286216
100.47424967645
100.475791768649
100.470067315326
100.470775965146
100.473215366348
100.472686507665
100.474910551916
100.46890634809
100.43090071741
100.428195313249
100.432508963662
100.443635743513
100.444038191548
100.4331672323
100.431037856327
100.428505577992
100.425525260208
100.422727114167
100.427079528618
100.422128194438
100.428396881094
100.446843828539
100.436212661421
100.440445504548
100.451671026985
100.473401260728
100.472214245535
100.475559882885
100.463896429846
100.467228006237
100.466697062541
100.465930663505
100.45683077259
100.446106825463
100.443111883283
100.420322542862
100.426080654388
100.432801714343
100.432429862203
100.42514428691
100.421627519465
100.432422859561
100.426464524453
100.42445285484
100.438696529146
100.443444737242
100.429219216841
100.428074395511
100.451107871094
100.482524606105
100.482954376951
100.470716246238
100.487014632713
100.469713549656
100.495202610892
100.477712798767
100.462810515325
100.464590029332
100.464134949565
100.46698928164
100.458091257572
100.462238606381
100.44730504202
100.428297840369
100.422150091784
100.427847582555
100.407023395649
100.414686900438
100.437292792997
100.435517496719
100.426700252241
100.423653277874
100.434407933877
100.428986420879
100.425294123057
100.437345477664
100.425371129295
100.426621548185
100.425207618426
100.428256983532
100.427072713893
100.450157420444
100.48194105193
100.482531010029
100.470133253594
100.486336493393
100.482405461358
100.438012468143
100.434776909303
100.435061023349
100.429285983833
100.438438089776
100.482949410999
100.479884513445
100.472703970049
100.485924833511
100.480333705613
100.461100281315
100.440621737233
100.460145174073
100.463800293141
100.461273311305
100.461323016258
100.462335320354
100.44757471657
100.428733871594
100.429231203819
100.428846647738
100.434427550276
100.435531412955
100.430845042262
100.436174645745
100.428749185143
100.422143808333
100.426284431396
100.435591803188
100.432164713257
100.4423612564
100.436389068931
100.434263337314
100.444106238489
100.430705732352
100.430246110809
100.424410676054
100.435377742272
100.436151525523
100.440241112249
100.437672529813
100.449361430128
100.471541096279
100.470943174452
100.474466501054
100.468699905462
100.494258766085
100.47930835974
100.428788268282
100.431975153032
100.432307436933
100.464922387097
100.463470944741
100.484698127578
100.480641366674
100.480664707166
100.463893946928
100.467175456881
100.45836113446
100.44368664115
100.421527694223
100.422879684873
100.428665908666
100.43489355726
100.435963726329
100.441592614881
100.441287352657
100.43474181508
100.436436683569
100.451409930857
100.446249990863
100.450288090501
100.44955790725
100.44282797553
100.440135700557
100.442307981475
100.438794092672
100.448371984683
100.448711705204
100.440923428171
100.441819481504
100.442332540992
100.433891429301
100.424428527624
100.423038630317
100.42663058769
100.434470404504
100.445507988717
100.465806782316
100.462820411224
100.462037535781
100.476784244666
100.47999568737
100.485270253062
100.472117075097
100.46458041525
100.463230102519
100.484503565863
100.458991552594
100.454460492183
100.462663154295
100.460772681994
100.454146300107
100.470396973169
100.471587907601
100.473775628695
100.473250841054
100.470924343531
100.470251257333
100.471347247239
100.472486371462
100.472604725019
100.472434157302
100.472677075487
100.473683846958
100.47515002806
100.476322713462
100.477207771669
100.479490157992
100.483975887176
100.494567273352
100.513793559087
100.547980762122
100.542794320505
100.483346453838
100.433700275913
100.383375501091
100.35488789542
100.375591641552
100.37360812317
100.371667019193
100.372222140912
100.373256380668
100.374257333998
100.375453234643
100.376991740159
100.378755097039
100.380501893832
100.381979716774
100.38300769009
100.383474288279
100.383428707923
100.383160523375
100.382644153468
100.381872764943
100.380853013527
100.379556503848
100.378052298696
100.376351431353
100.374456894983
100.372505030142
100.370685207333
100.369142574477
100.367947566205
100.367094273985
100.36657965737
100.366414765162
100.366583865367
100.367111058963
100.3680467367
100.369409936892
100.371063984043
100.37274655267
100.373536261747
100.373511724726
100.373399720218
100.373489033038
100.373474487604
100.373594750149
100.37390464257
100.373865556213
100.374002378006
100.374048999481
100.374336785911
100.374512084762
100.374722664951
100.374947942288
100.374959694874
100.375097850734
100.374963014126
100.374920842384
100.374834757244
100.37474932907
100.374656660918
100.374569088988
100.374437187864
100.374351485004
100.374205800044
100.374071471443
100.373918601425
100.373764675133
100.373572146692
100.373566742472
100.373507999868
100.37376101097
100.373899918048
100.374055425995
100.374186049798
100.374338025367
100.374436215613
100.374550180391
100.374648965968
100.374746804789
100.374830534163
100.374930913338
100.375047586353
100.374808625752
100.374655844099
100.374373447566
100.374216826738
100.373927626591
100.373933436295
100.373803753707
100.373841694235
100.373512549288
100.373421098593
100.373321639571
100.373356061225
100.373444620555
100.373760205123
100.37374489619
100.373861661757
100.373835789337
100.374115685487
100.374284028888
100.374588673143
100.374725315291
100.374644566003
100.374508421534
100.374170607018
100.374005099344
100.373757919073
100.373789237075
100.373684066131
100.37365342096
100.37338004509
100.37330602195
100.373167592581
100.373222681119
100.373318869785
100.373551183332
100.37360790753
100.373706201492
100.373686316794
100.373913418301
100.374051214058
100.374401382153
100.37456822067
100.37447071632
100.374298882243
100.373934769526
100.373823441138
100.373617299223
100.373596988625
100.373531864894
100.373465484056
100.373256769097
100.373178290449
100.373027207811
100.373085790838
100.373192358895
100.373372130554
100.37342640325
100.373413358628
100.373667956707
100.373700228632
100.373864992247
100.374198423284
100.374378994457
100.374282208603
100.374088696231
100.373738605664
100.373558554216
100.373500362655
100.373321254231
100.373344820767
100.37328642299
100.373129649627
100.373054678736
100.372920476588
100.372959586853
100.37306533973
100.37319940992
100.373248660404
100.373251006145
100.373390018183
100.373451208276
100.373594969291
100.373951751904
100.374160604191
100.373999965241
100.373801093999
100.373437996996
100.373339429273
100.373328049246
100.373226056233
100.373192126397
100.373150821362
100.373120824782
100.373008446905
100.372945746398
100.372837536144
100.372839603393
100.372949101625
100.373054258793
100.37308686504
100.37313940151
100.373164169251
100.373284592228
100.373371887124
100.373689982793
100.373867591418
100.373727875484
100.373556893056
100.373256724277
100.373171878793
100.373088399405
100.37306896285
100.373015022343
100.37299806208
100.37289670434
100.372840362218
100.372711911568
100.372729798706
100.372839290237
100.372937222981
100.372936930709
100.373001396073
100.373029849773
100.373095159873
100.373140257368
100.373425115998
100.373595846208
100.373394576426
100.373275412594
100.373038051631
100.373032408604
100.372952483483
100.372919877626
100.372869208176
100.372877437451
100.372789478652
100.37274722949
100.372613010925
100.372629962852
100.372724859542
100.372787255283
100.372791932049
100.37285013419
100.372877687765
100.372941974533
100.372926845631
100.373158533943
100.373273970954
100.373300739753
100.37319629159
100.3731335893
100.373102147254
100.372963153001
100.372896727207
100.372870505701
100.372780256235
100.372803824095
100.372759420094
100.372701952409
100.372695776113
100.372652654948
100.372556866473
100.372410023072
100.372354399039
100.3723811732
100.372374285331
100.372481530182
100.372534861052
100.372594909772
100.372615503595
100.372634051423
100.372691974412
100.372728837648
100.37271828646
100.372878149975
100.372935115183
100.37312778188
100.373014008568
100.373009470536
100.373005584384
100.372846407249
100.372738811417
100.372784231131
100.372691215289
100.372870395506
100.372817573145
100.372773912994
100.372642978196
100.37262330434
100.37259249539
100.372539127889
100.372507695527
100.372520451429
100.372462189975
100.372414780097
100.37229041695
100.372152623206
100.372288526366
100.372399852529
100.372410314171
100.372475384422
100.372456000794
100.372477984293
100.372508245112
100.372588710061
100.372584090677
100.37273091816
100.372728745489
100.372591368344
100.372632143402
100.372566292749
100.372567157148
100.37248106068
100.372504533977
100.372649703755
100.372465937361
100.372514909045
100.372464325299
100.372449034362
100.372411105901
100.372422239935
100.372364476285
100.372343325554
100.372224919028
100.372107441522
100.372231595409
100.372328872561
100.372337045089
100.372364037331
100.372366355647
100.372400025099
100.372411054251
100.37242743537
100.372445071511
100.372474115098
100.372452826597
100.372478490928
100.372492340342
100.372614887595
100.372584518901
100.372674987413
100.372744781749
100.37281536005
100.372859637147
100.372893471241
100.372913960434
100.372936996111
100.37297188202
100.373032833581
100.373099338406
100.373159288243
100.373230318497
100.3733180627
100.373396599232
100.373483325251
100.373585629025
100.373707450084
100.3738154688
100.374095533225
100.374203236999
100.374500276873
100.374575145352
100.374817773201
100.375007140612
100.374990986934
100.375168014597
100.375071880694
100.37495589648
100.374947717222
100.374694437656
100.374566601348
100.374506315237
100.374357801244
100.37425264409
100.37414866984
100.37405030397
100.373923496613
100.373827705117
100.373724721144
100.3736175034
100.373459966461
100.37336810533
100.373251981654
100.373380062952
100.373354212273
100.373600327117
100.373755041761
100.373895809333
100.373980227858
100.374095852592
100.37423053165
100.374327979782
100.374409943967
100.374519262028
100.374642349696
100.374732742311
100.374798031889
100.374949923335
100.375114620169
100.375158621345
100.375016286996
100.374789756138
100.374410508003
100.373955109466
100.374097054203
100.37420553013
100.374561368909
100.37487296177
100.375054056222
100.375176286422
100.375116050092
100.375001170055
100.37481377919
100.374531753857
100.37411820233
100.37403810986
100.37395424017
100.373743272756
100.373575336478
100.373218753727
100.373032608095
100.372890368837
100.372738507117
100.372620056315
100.372460671385
100.372351525417
100.372230695239
100.372110651238
100.371968238612
100.372222445273
100.372532343351
100.372707731099
100.37277824674
100.372897146739
100.373020588692
100.373164327194
100.373254981015
100.373402977712
100.373523268928
100.373706490207
100.374093507062
100.3741116839
100.374308081173
100.374458935079
100.374787445322
100.374555029707
100.374498954081
100.3746741028
100.374471206914
100.374205964192
100.373611191516
100.373431395216
100.373681375595
100.373965849738
100.373938059525
100.373992471884
100.374149049831
100.374249866409
100.37434980523
100.374610141962
100.374902636293
100.375071055537
100.375182489334
100.375146650383
100.375016930795
100.374763272974
100.374491187948
100.374383603224
100.374148622538
100.373800864736
100.37334011923
100.373261930344
100.37308681475
100.372822176226
100.372608197876
100.372445951454
100.372268858037
100.372056830348
100.371859741084
100.371671920166
100.371554821893
100.371373477043
100.371216746977
100.371002305729
100.370848922549
100.370726078042
100.370660413015
100.370467096494
100.370303965093
100.37047121553
100.37089366228
100.371103131236
100.371209558378
100.371169239861
100.371272727971
100.371396272572
100.371579377787
100.371714222502
100.371890162855
100.372013930761
100.372183494476
100.372346768672
100.372585229664
100.372860817625
100.373022515023
100.373401914064
100.373431237784
100.373629344582
100.373393736986
100.373700626969
100.373985934013
100.374024335232
100.374021755632
100.373596546086
100.373559309546
100.373679572834
100.373696548994
100.373925172071
100.374133061123
100.374106551208
100.374289068198
100.37429701644
100.374440834482
100.374656461596
100.374954968863
100.375100836165
100.375219509855
100.375145999457
100.37515977489
100.375095297309
100.374889548421
100.374574919404
100.374216384415
100.37386865018
100.373436932826
100.372955192617
100.372756879144
100.372664930505
100.372451945394
100.372337111064
100.372189015175
100.372029239847
100.37187409883
100.371751614346
100.371507116408
100.371457026933
100.37125318384
100.371054782923
100.370896833847
100.370633492977
100.370397746088
100.370168360168
100.370015591826
100.369816079883
100.370036413415
100.370314184287
100.370556688123
100.370779385502
100.371017529229
100.371125968895
100.371306677572
100.37150518923
100.371706709166
100.371809429976
100.371994566671
100.372192561362
100.372418602875
100.372560845058
100.372820792807
100.372795322878
100.372519649418
100.372786585453
100.372952854056
100.373220432297
100.373128054284
100.373235568167
100.37442394574
100.374231975406
100.374106710783
100.373657502076
100.373549831229
100.373863293718
100.373907072587
100.374203018408
100.374149742759
100.374303807087
100.374327227645
100.374685261679
100.374876610049
100.375147906852
100.375285451243
100.375201330109
100.375275811898
100.375186928632
100.375121087573
100.374892419979
100.374633597072
100.374205203306
100.373911171362
100.373709507499
100.373466547701
100.373199308035
100.372898216322
100.372566021821
100.372565874207
100.372474369021
100.372328892427
100.372380403632
100.372183965777
100.372044448503
100.371955549099
100.371820607471
100.371981512602
100.371763736726
100.371550412445
100.371400466587
100.371216957614
100.371010321835
100.370730220815
100.370467199922
100.370209939703
100.36992882292
100.369595448119
100.369233365604
100.368884722297
100.368405904803
100.368675444665
100.369113516124
100.369497489457
100.369713293451
100.369941056558
100.370198932933
100.37045394825
100.370739426874
100.370915691147
100.371098559179
100.37130531816
100.371612475759
100.371801644148
100.371740678357
100.371786802329
100.371930438079
100.372081055657
100.372349359295
100.372432631217
100.372428576813
100.372261975892
100.372190578149
100.372234766214
100.372246765037
100.372229809974
100.373522303286
100.370695724585
100.369539702501
100.36900103753
100.368124196582
100.367322883288
100.366722772313
100.366225782204
100.36593829588
100.365648230892
100.36520257367
100.364518625716
100.361559014451
100.358995075566
100.364208840367
100.36443121998
100.365046408315
100.366158606572
100.367526912893
100.368457142206
100.369181645056
100.369735608224
100.370180293987
100.370556734426
100.370779508263
100.3710933631
100.371709051937
100.370408996432
100.372302376119
100.369667314001
100.373379633696
100.373267812392
100.373524175762
100.37351199592
100.373612663787
100.373761862087
100.374030694346
100.373985569591
100.373454834594
100.372530828416
100.371376747183
100.369725902824
100.368160444591
100.367199299036
100.370303164761
100.372225255678
100.369038228473
100.365020765384
100.362143827476
100.36086558501
100.350318720033
100.354426657431
100.352496558211
100.356655433659
100.357260654
100.359080325731
100.362510305226
100.361635983465
100.358803397654
100.359546464415
100.356955149809
100.358859809444
100.360562861126
100.361180860613
100.362028703017
100.363329848219
100.363089456007
100.366060410932
100.367915701092
100.36955519578
100.371282482286
100.372138773154
100.372281046033
100.372364775122
100.372269921845
100.372737078641
100.372896745667
100.373042416563
100.373198907097
100.373387872737
100.373571017692
100.37373550625
100.373891915523
100.37378860854
100.373541499169
100.373693302715
100.373625230994
100.373784896408
100.373999700094
100.373744272182
100.373848869804
100.374104047607
100.374214235905
100.374165345345
100.374247163995
100.374552638874
100.374751921082
100.375011731905
100.375146992505
100.375265225862
100.375296938792
100.37510354592
100.374883310742
100.374591437961
100.374680607989
100.374816829976
100.375094099452
100.375226244484
100.375282422967
100.375269271238
100.375136188275
100.374954285329
100.374887017487
100.374835999731
100.374636839494
100.374370844879
100.373986946603
100.373513466881
100.373291694849
100.373122525464
100.372978477968
100.372786085013
100.372685395796
100.372522346548
100.372713519694
100.37261447233
100.372784017158
100.372714989616
100.372603104094
100.372447243328
100.372620154707
100.372479184353
100.372380938694
100.372241091856
100.372095846258
100.371923186487
100.371729541205
100.371845925992
100.37161537949
100.371412683415
100.371200313773
100.370960924646
100.370684725347
100.370413420682
100.369907588189
100.370154216296
100.370491541608
100.370758039763
100.370996174293
100.371229436043
100.371446235821
100.371677704845
100.371487391292
100.371532251045
100.371722929805
100.371914416131
100.372143092334
100.372262773798
100.372434411477
100.372227564231
100.372299119331
100.372489754997
100.37257995952
100.372505361058
100.372428058043
100.37225226881
100.372005715012
100.371628342741
100.371607344335
100.371686826158
100.372072326155
100.372353900344
100.37281407727
100.373229631266
100.373570656399
100.373845874643
100.37406949484
100.373870963253
100.373899374377
100.374051450466
100.374300407282
100.374252554081
100.374411042509
100.374497488628
100.374775672874
100.375143445547
100.375040213269
100.375157458452
100.375195266007
100.37508416706
100.375078984562
100.375006578312
100.374770109555
100.374492317425
100.374350546396
100.374063219014
100.373671724025
100.373390771796
100.372992229701
100.372886724688
100.372772288133
100.372760778867
100.372723485235
100.37280554747
100.372735741526
100.372981406097
100.372858591693
100.373047738973
100.372949549955
100.372931324161
100.372746330693
100.372850315111
100.372721964757
100.372635260511
100.372555099703
100.372457447975
100.372255346835
100.37224143477
100.372071742028
100.371888436453
100.371678233433
100.371470686718
100.371255826352
100.370993805575
100.370709231272
100.370411150976
100.370085580035
100.369697209827
100.36932115337
100.369676499446
100.370056760102
100.370246978567
100.370562372504
100.370856751733
100.371114233205
100.371335843798
100.371562647094
100.371786503719
100.372049795952
100.372236385587
100.372115166101
100.372210516034
100.372338543638
100.372421777072
100.372547653218
100.372755490328
100.372621878063
100.372636406474
100.372711246289
100.372884959127
100.372735683439
100.372713836087
100.372442689693
100.371937567143
100.371736879251