/*--------------------------------*- C++ -*----------------------------------*\
| =========                 |                                                 |
| \\      /  F ield         | OpenFOAM: The Open Source CFD Toolbox           |
|  \\    /   O peration     | Version:  v1612+                                |
|   \\  /    A nd           | Web:      www.OpenFOAM.com                      |
|    \\/     M anipulation  |                                                 |
\*---------------------------------------------------------------------------*/
FoamFile
{
    version     2.0;
    format      ascii;
    class       volScalarField;
    location    "0.1";
    object      p;
}
// * * * * * * * * * * * * * * * * * * * * * * * * * * * * * * * * * * * * * //

dimensions      [0 2 -2 0 0 0 0];

internalField   nonuniform List<scalar> 
81489
(
99.9965001456501
100.001324285049
99.9945351497145
99.9988036803316
100.004118828012
100.00079281075
100.000415163006
100.000467254908
100.000637369391
100.000253312555
100.000858472211
100.003944723349
100.007789055458
100.006623597677
100.004825745074
100.005830283601
100.002977829595
100.00059447277
100.000612602718
100.002991538262
100.00580433363
100.00478198777
100.006589601382
100.007743796194
100.003922963769
100.000828072497
100.000222571641
100.00061248161
100.000440115122
100.000384058122
100.000759314649
100.004098711245
100.007909753519
100.006757079269
100.004818577687
100.005830464775
100.003018763276
100.000658774109
100.000641909793
100.003005459572
100.005853868857
100.00486542293
100.006796148339
100.007948610965
100.001106920434
100.000395147419
99.9961181290581
99.9966293731055
99.9979862643048
99.9984053980165
99.9984331731245
99.9980090755293
99.9966104891754
99.9960832512144
100.000365380078
100.00107881766
99.9988014712062
99.9977347898731
99.9984351984684
99.998673152717
99.9986266409085
99.9983004660844
99.9979615303996
99.9989368132754
100.001069263639
100.000342713714
99.9960586032528
99.9965690633334
99.9979654321249
99.9983902455499
99.9983603843158
99.9979352414278
99.9965917689149
99.9960963717289
100.000373996835
100.001095238122
99.9989393518768
99.9979749568773
99.9983167415367
99.9986440892537
99.9986911714244
99.9984505396392
99.997750035573
99.9945118474883
99.9966440051694
99.9965526643151
99.9852483453453
99.9876433399752
99.9877772981538
99.9980865023644
99.9927076445113
99.9907928805594
99.9932135108205
99.9953699349212
99.9954001471943
99.9932164654951
99.9907439025393
99.9926672275697
99.9980568398967
99.9980662677473
99.9945395311457
99.9945010343683
99.9966386320038
99.995483407375
99.9954598038672
99.9966879377813
99.9945840575992
99.9944255203025
99.9980179188727
99.9980660984715
99.9926538808851
99.9906965877045
99.9931676392612
99.995354352141
99.995326294252
99.9931554360232
99.9907405854286
99.9926922670069
99.9980951233754
99.9980521292458
99.9944235849463
99.994596512875
99.9966945689962
99.9954770374779
99.9955014881172
99.9925634393372
99.9925150061947
99.9852917749695
99.9554915301509
99.9554116392158
99.9498136934999
99.9507867363537
99.9559523248428
99.9863341313152
99.9933638864703
99.9926985750972
99.9926944940935
99.9932900653989
99.9959217688549
99.9877764857157
99.9876060637157
100.001336347961
99.9965461948515
99.9925369486014
99.9924909458191
99.9962691698182
100.000916893811
99.9875964134082
99.9877794287583
99.9862767667072
99.986314443835
99.987783688873
99.987634084987
99.949947974154
99.9497256989297
99.9512329525915
99.9512207956351
99.9497066909927
99.9502341846885
99.9510602258296
99.951081473178
99.9560016482367
99.9862983982688
99.9803974005444
99.9636882572316
99.9572573691658
99.9570969202923
99.9546413618438
99.9556963822682
99.9502526017022
99.9508869166216
99.949868550234
99.9554382167684
99.9852211148374
99.9852644777552
99.955518736341
99.9500004133976
99.9509640079638
99.9560422298594
99.9559933678408
99.9508662950013
99.9502517298334
99.9557072574698
99.9555763502103
99.9548512040265
99.954860122171
99.9556026079575
99.9557202470597
99.9546469412673
99.955965553797
99.9559616325367
99.9565884758908
99.9565508861593
99.9555954570728
99.9497269887292
99.9512469024248
99.9512612290409
99.9497491609233
99.9502700265988
99.9511151297248
99.9510932135713
99.9546575926519
99.9559685014618
99.9565997606874
99.9565471435898
99.9560370473199
99.9560396435194
99.956561838085
99.9566011706149
99.9545149365837
99.9543306615371
99.9543321516581
99.9545158288178
99.9544620053147
99.9543313002019
99.9560340963757
99.9548649522056
99.9548558007628
99.9555703554827
99.9556818990319
99.9546523591202
99.9559631649723
99.9543361653101
99.9543376997438
99.9545269445855
99.9544709194093
99.9543428130608
99.9543386808081
99.95446888524
99.952100143611
99.9521295486747
99.9520548931185
99.952056002427
99.9521291696087
99.9520965168013
99.9520608722323
99.9520632631619
99.9543339034664
99.9560304656314
99.9565383682314
99.9565793016988
99.9545141514466
99.9521300515322
99.9520626815326
99.9520648856119
99.9521400230428
99.9521125113587
99.9520744403279
99.9520674095538
99.9501331439593
99.950158743706
99.9501695608163
99.9501069963284
99.9501079639684
99.950167852437
99.9501622260808
99.9501258196571
99.9501259953868
99.9501537262259
99.9520989242479
99.9544639192843
99.9550306699798
99.9523988942815
99.9504276628973
99.9501670830861
99.9501134359437
99.9501198671909
99.9501838533147
99.9501780221473
99.9501394492425
99.9483659191433
99.9483622693365
99.948376318341
99.9483751913996
99.9483336167479
99.948337092961
99.9483735050982
99.9483782071912
99.9483517915994
99.9483544964615
99.9483641271107
99.9483724921475
99.9483389332966
99.9483514500924
99.9483946984257
99.9483970595833
99.9464625951814
99.9464339130095
99.9464301837085
99.9464305962496
99.9464347722215
99.946405809548
99.9464166086343
99.9464315010302
99.9464378862771
99.9464215751263
99.9464294392708
99.9464283038861
99.9464293960594
99.946409593603
99.9464356077015
99.9464566985024
99.9441539948102
99.9441302695677
99.9440603638129
99.9440520283437
99.9440649940344
99.9440753606419
99.9440278803674
99.9440550973968
99.9441091879909
99.9440979237509
99.9440521768268
99.9440691068253
99.9440804219333
99.9440616466754
99.9440252108737
99.9440853618201
99.9408364635183
99.9409413409226
99.9408829017145
99.9407729595171
99.9407256614951
99.9407468024912
99.9407809344519
99.9407281244077
99.9407840326742
99.9408649579491
99.9408349372011
99.9407472171851
99.9407680985434
99.9408083423916
99.9407357990914
99.940708875283
99.9356487235601
99.93582767933
99.9356720469629
99.9354761728563
99.9355755457829
99.9355557142508
99.9354162871427
99.9354636113612
99.9356947321777
99.9357641515629
99.9355629199496
99.9355208698155
99.9357185680799
99.935724510364
99.935508485238
99.935352901557
99.9207520234366
99.9222601053068
99.9221480811576
99.9206862466122
99.9204707113405
99.9223146682025
99.9223301417271
99.9205319388737
99.9206129548802
99.9220547197845
99.9220421216886
99.92053271403
99.9205341339084
99.922072495959
99.9220576316994
99.9207042181944
99.9344965770604
99.9351067807551
99.9318473051023
99.9315038321024
99.934722217023
99.9343423893887
99.9309284965882
99.9309760087226
99.9343737836261
99.9347783985896
99.9315121236578
99.9314458665964
99.9346809459168
99.9342563960829
99.930957193657
99.9310760636956
99.9899922514355
100.043685962581
100.000436622315
100.000324992164
100.04328190756
99.9898472983072
99.988804884119
100.042677768719
99.9995860341165
100.000112203249
100.043619083837
100.075670347015
100.075299211557
100.043278998355
99.9897697621288
99.9897615268012
100.113902844208
100.213527959568
100.170480923177
100.17054056514
100.143671324978
100.137663092326
100.136305425225
99.99961414585
100.042679291791
100.073767917471
99.9889699381717
99.9888119622349
100.042609422951
99.9995781972811
100.000015475454
100.043465930832
99.9899381213666
100.075799554669
100.075904058789
100.170416512151
100.143761910865
100.137877267745
100.136572119756
100.141641019491
100.168535258177
100.168721164906
100.141898230223
100.136785095864
100.137734632628
100.143709127765
100.235707515762
100.274680842504
100.2530573614
100.252983421495
100.274481850836
100.264878778168
100.235513872648
100.330926378906
100.365831075781
100.338130117681
100.329477153136
100.329778616859
100.337954735548
100.273782182654
100.23410152678
100.264921262618
100.330982379744
100.365520545518
100.386656426236
100.393971799986
100.397170996157
100.402232077149
100.404761388502
100.405720253993
100.406611954107
100.407516370887
100.407792989104
100.407049561143
100.404773226093
100.40072785705
100.394881563686
100.387764720819
100.380771513141
100.375697459671
100.375101241552
100.38164090358
100.396948083122
100.41919868099
100.44461093624
100.457987923868
100.471438681133
100.457846897875
100.411190021095
100.36624808437
100.318519146018
100.290748835435
100.308707532502
100.307494861638
100.305810507915
100.306092519109
100.307039608713
100.307852493496
100.308567166168
100.309281634334
100.30992273323
100.310371847329
100.310623600209
100.310749045744
100.310795198657
100.310450902689
100.310006878973
100.309471432644
100.308870541091
100.308236778359
100.307604371685
100.307010734095
100.306492328793
100.306065836419
100.305731367852
100.305471913234
100.305264418363
100.305091702349
100.304940055136
100.304790413012
100.304628207938
100.304441557998
100.304218947946
100.303950484088
100.303657037709
100.303343186988
100.303242474185
100.303475804558
100.303992287348
100.304256121861
100.304275093491
100.304384375887
100.304369759103
100.304501767156
100.304488897648
100.30457735154
100.304619998159
100.304632641606
100.304463457533
100.304250060635
100.30421211197
100.304181755096
100.304435667272
100.30443405065
100.304449002352
100.304596012566
100.304601605638
100.304573059252
100.304488551441
100.304508700797
100.304373149389
100.304392294414
100.304286059576
100.304267496806
100.304011418686
100.303542400096
100.304071546598
100.304275418111
100.304301526445
100.304402347044
100.304382513932
100.304517245271
100.304491763891
100.304570459492
100.304587991323
100.304566592024
100.304514644214
100.304409023286
100.304428701873
100.304539169752
100.304537305011
100.30458696604
100.304569968272
100.304562765016
100.304496415867
100.304526219448
100.304394223369
100.304410133524
100.304312861687
100.304285202297
100.304088225457
100.303677261518
100.304156032615
100.304286043227
100.304325150136
100.30442423521
100.304415212177
100.304546869699
100.304507758653
100.304578044002
100.304546604022
100.304554340521
100.304602863893
100.304531278147
100.304412171529
100.303991657934
100.303586600215
100.303688977744
100.304108192249
100.304113887104
100.304421116062
100.304543894363
100.304602970439
100.304550982063
100.304570565376
100.304548782216
100.30444089232
100.304442472549
100.30434330963
100.304294760556
100.30418074856
100.304080956663
100.303735320323
100.303328398387
100.303875087198
100.304099784607
100.304211893366
100.304322873027
100.304351691257
100.30447172685
100.304457685501
100.304533030834
100.304568416697
100.304503531218
100.304585759193
100.304604551931
100.304564112355
100.304416315354
100.304184909949
100.304308886111
100.304527680637
100.304501211384
100.304591475042
100.30461786421
100.304594079142
100.304525963736
100.304566561083
100.304433053802
100.304404685924
100.304436181103
100.304468785832
100.304323455491
100.30426301919
100.304154075119
100.303926202445
100.303491756375
100.304018894577
100.30421020035
100.304302220752
100.304348517438
100.304465236008
100.304473019893
100.304457450597
100.304574761994
100.304551119858
100.304616609149
100.3046534258
100.304647797245
100.304532826728
100.304637466873
100.304655865103
100.30459846146
100.304603823674
100.304689365342
100.304682496926
100.30457179041
100.304280177793
100.303916140487
100.304255559138
100.304389720273
100.304537698149
100.304670460782
100.304711552159
100.304608468851
100.304730388708
100.304721643388
100.304621709739
100.304602436872
100.304567771883
100.304486988581
100.304485228415
100.304415052376
100.304381758542
100.304340054022
100.304260180014
100.304023936834
100.303658168987
100.304126310254
100.304311398658
100.304374757405
100.304398224793
100.304436817925
100.304505544408
100.304515188418
100.304574922209
100.304613631736
100.304592940858
100.304669089068
100.304756965138
100.304774979362
100.3047844259
100.304690159658
100.304742717641
100.304757930465
100.304784984987
100.304731246527
100.304649059136
100.304656648605
100.304549256212
100.304502735084
100.304505201519
100.304525383878
100.304419126515
100.304373110673
100.304340663978
100.304133757831
100.303858673577
100.304239063958
100.304313335834
100.304423692171
100.304457699383
100.304556155463
100.304586615572
100.304585601546
100.304686601509
100.304706054022
100.304779479113
100.304737686483
100.304605482823
100.304363575942
100.30401571846
100.304302158729
100.304416449602
100.304593133633
100.30462974565
100.304714968185
100.304752851861
100.304735797146
100.304642523455
100.304652714145
100.304698932414
100.304562566315
100.304568697682
100.304497327886
100.304470613556
100.304381330724
100.304302095999
100.304240702905
100.303939193439
100.30378216587
100.304149401305
100.304188791845
100.304379656297
100.304448104229
100.304499806073
100.304596527428
100.304619048362
100.304609620296
100.304688858162
100.304746560483
100.304698328853
100.304797292402
100.304746990463
100.304637695893
100.30470993496
100.304755869681
100.304772091215
100.30473517215
100.304621669668
100.30441854711
100.30455014918
100.304667909701
100.304702524117
100.304780080057
100.304798115788
100.304782974466
100.304723788159
100.304728602717
100.30466096704
100.304622847969
100.304596899498
100.304533160493
100.304501245312
100.304434525433
100.304323327889
100.304011105244
100.303929078112
100.303822762849
100.3037703675
100.303684391005
100.303538716001
100.303466539895
100.303391665517
100.303357178487
100.303303857033
100.303250587881
100.30334037106
100.30364858573
100.303943973031
100.304214329293
100.304438433576
100.304625633511
100.304787279116
100.304935431314
100.305083484652
100.305250094186
100.305449304218
100.305697343217
100.306015395229
100.306419988327
100.3069124848
100.30747726453
100.308081114612
100.308689236607
100.309270000215
100.309790944969
100.310223959276
100.310560626878
100.310793916617
100.311033447672
100.311156197119
100.310915658346
100.31056780519
100.310118450112
100.309575783128
100.308964663238
100.308317873169
100.307671071811
100.307062749381
100.306530978714
100.306092933227
100.305749792095
100.305484179352
100.305272488753
100.30509669741
100.304942452202
100.304792417035
100.304630008087
100.304443649802
100.304221919381
100.303955052834
100.303662672047
100.303349705626
100.30323882607
100.303457286648
100.303956833887
100.304235824008
100.304288963784
100.304343270827
100.304403245271
100.30447734301
100.304484221032
100.304570355727
100.304635986552
100.304663662353
100.304520540885
100.304277912711
100.304272122814
100.303799015849
100.303093799893
100.302135535404
100.30211278258
100.302208015108
100.30231102289
100.302546171479
100.30314014658
100.303273587886
100.303161031071
100.303156383162
100.30310603049
100.303765541229
100.303782250434
100.303834981644
100.303956488288
100.304245107377
100.30433524315
100.303869189269
100.303353020197
100.302670582799
100.301885678535
100.300691780594
100.301132072441
100.301997205252
100.302233796387
100.302917582439
100.302923752367
100.302298519999
100.30272496208
100.302903180053
100.303434010479
100.303526470359
100.303422845983
100.303873259404
100.303995624559
100.304111452156
100.303627541251
100.303054663302
100.302547369381
100.301681225674
100.302039380438
100.302585280131
100.30274896501
100.303372809009
100.303649020645
100.303036139071
100.303244992501
100.303644215195
100.303802070006
100.304230215022
100.304083051562
100.303739128801
100.304093464737
100.304303240736
100.304531495249
100.304531242695
100.304496227754
100.30446360531
100.304446428369
100.30441622004
100.304401782309
100.304381864682
100.304340160194
100.304306302457
100.304276034272
100.304263442514
100.304250050402
100.30423490877
100.304219595734
100.304215485776
100.304251472268
100.304271681777
100.304387216693
100.304357384021
100.304490317374
100.304487019564
100.304577320568
100.304630176609
100.304653875567
100.304488115517
100.304497847393
100.304610800854
100.304635112713
100.304538841451
100.304532847742
100.304534694953
100.304556842012
100.304645325222
100.304668142779
100.304518628812
100.304279870502
100.303831734966
100.303135798303
100.302158422623
100.302164912998
100.30084832047
100.299400888852
100.29713224158
100.297166673616
100.298756469796
100.299320513929
100.300689047841
100.300552891408
100.299239979857
100.299627376131
100.299961318295
100.300396566168
100.298655267191
100.297378573305
100.295482494483
100.297039219586
100.297747347956
100.29857717482
100.299209523582
100.29977241696
100.300578793733
100.300885628566
100.300479566859
100.299738480379
100.29893810133
100.298503245563
100.29936508877
100.298962808126
100.301797187631
100.30372320945
100.303892141894
100.304080221493
100.304059173995
100.303987693537
100.303949165962
100.303907794574
100.303958094087
100.303899728454
100.303885900478
100.303945176645
100.30422968535
100.304278387431
100.304343876961
100.304417788943
100.304438052448
100.304529200104
100.304529551215
100.304557279725
100.304644911572
100.304671619674
100.304508560637
100.304299679081
100.303813865566
100.303134007018
100.302180856429
100.300774499668
100.299342031134
100.296978787741
100.296959535411
100.293960101204
100.290490007368
100.290910288263
100.291300925264
100.292500246531
100.293485629698
100.294540201309
100.292115008366
100.290062184845
100.291933798663
100.293682412118
100.294806886556
100.29599352634
100.296097860584
100.295032678964
100.293543634471
100.292929833499
100.294544051316
100.295916956885
100.296203356034
100.29578645261
100.297916178497
100.301091875568
100.303542373898
100.303745909349
100.3036849639
100.303345053324
100.303616426483
100.303588943777
100.303207133132
100.303562320771
100.303562920448
100.303886424994
100.303945847471
100.304230371918
100.304279262639
100.304344137104
100.304418557933
100.304438896325
100.304496286629
100.304485615957
100.304571877769
100.30463602725
100.304671163125
100.304506150957
100.304303876783
100.303834105252
100.303124199174
100.3021919594
100.300812008737
100.299389294627
100.297097193707
100.294163542727
100.290783759529
100.290463274355
100.286480208114
100.282190317327
100.258676556562
100.258271507785
100.26198104339
100.279399920917
100.282878910063
100.282185120833
100.28647564913
100.286982926869
100.287359984161
100.281046942049
100.284911489053
100.287577175054
100.284039673219
100.279420746397
100.271679142518
100.279410918951
100.284685420029
100.284351159379
100.28715507295
100.289410870624
100.287576592396
100.291003492874
100.292718584185
100.294264446898
100.295372532868
100.295194925716
100.293463211919
100.291886952173
100.291477287762
100.29288797711
100.293993612585
100.292643528956
100.291867709843
100.290286895412
100.291593009876
100.290997595789
100.291535109205
100.291524870238
100.291343700541
100.291246011122
100.291096605844
100.293435102285
100.291922751807
100.294357513926
100.291632061588
100.291626280721
100.291240313971
100.290866267978
100.290559698105
100.291990998521
100.292962050912
100.294387111995
100.29302617529
100.291765564939
100.292770919193
100.289218638166
100.288411829311
100.288650868923
100.289975037046
100.287360874819
100.288146564681
100.28973756452
100.297720375866
100.29695079565
100.298866405584
100.298394392019
100.299827855788
100.300938003346
100.299612646047
100.300631737507
100.300716683282
100.29758351885
100.298174974616
100.297648153051
100.29459876202
100.295628028505
100.295908655269
100.296999393896
100.296710734749
100.29683988575
100.296365078687
100.295195137538
100.294755848054
100.292883813101
100.297559596845
100.301135592205
100.303270637917
100.303643260839
100.30400484474
100.304011954039
100.303921453266
100.30384606865
100.303707232999
100.303431620051
100.30329596303
100.303196970895
100.303166175438
100.303167182743
100.30345857898
100.303958200656
100.304237349047
100.304289790534
100.304343892762
100.304404645937
100.304479082363
100.304492222334
100.304488101975
100.304578393303
100.30463075033
100.304654753051
100.304491916935
100.30426485323
100.303820648683
100.303091682419
100.302117404061
100.300836915641
100.299346400027
100.297121338491
100.294350471452
100.291251307093
100.287411989118
100.28103008419
100.279427684622
100.26270717055
100.243595988427
100.163841252652
100.181211822224
100.199911864825
100.204187800766
100.201100221796
100.196048376639
100.206731928213
100.203363425077
100.198478830552
100.209294801436
100.205527579633
100.198948941374
100.208481797353
100.204970072157
100.198161182591
100.207246176582
100.203879902511
100.197199357284
100.205945985147
100.202699203705
100.196358211182
100.203629750696
100.201907396057
100.202303167633
100.20182323066
100.2002908127
100.200146090553
100.200383816988
100.20004747596
100.20024048797
100.20065714345
100.200222943263
100.199915613715
100.20033308347
100.200303562282
100.200104585635
100.200220683715
100.200335942163
100.200332879535
100.200854761923
100.200649771564
100.200318756695
100.199803010547
100.200620424141
100.200559121623
100.200142134318
100.199098679234
100.199017512037
100.19998718439
100.200481382236
100.200573845457
100.199773389157
100.200306452701
100.200642124868
100.200851792328
100.200321231011
100.200325344676
100.200217989677
100.200117042908
100.200306650481
100.200337252082
100.199912148041
100.200217726545
100.200652961155
100.200236956259
100.200052043133
100.200343465121
100.200102111909
100.200289688861
100.201821267066
100.202297598
100.201904041343
100.203627583773
100.202413414646
100.203236478036
100.202209765079
100.201508516018
100.202905738553
100.202860044839
100.201555425283
100.201071785017
100.201254861068
100.19949235727
100.200590140353
100.20048470753
100.200365931106
100.200422086763
100.200259691278
100.200341013492
100.200569635834
100.200282684882
100.200072776062
100.20111144199
100.199835901416
100.201118730509
100.200613968221
100.200985831177
100.200771460205
100.200661091053
100.200459390797
100.200473503867
100.200659138316
100.201076810415
100.200453046062
100.200347415991
100.200319172545
100.200406360707
100.200859476873
100.200476937477
100.200497280583
100.20045229988
100.200513469339
100.200259388462
100.200209686574
100.200819569942
100.201589747053
100.20046940766
100.200159811044
100.19971536167
100.199733975365
100.200206945861
100.200480758598
100.201594059809
100.200832821154
100.200225812414
100.200269735824
100.200517151144
100.200836870812
100.200866611469
100.20086490727
100.200830803405
100.200629079458
100.200564958666
100.200565896637
100.200631312322
100.200624021836
100.200480349741
100.20049881903
100.200455891413
100.200866495011
100.200206682603
100.200541953769
100.201723079979
100.201532557262
100.201648142131
100.201042782921
100.202673810025
100.201974734676
100.200993851298
100.20143733285
100.201455440856
100.201470882116
100.201409620112
100.200968443632
100.201968990713
100.2026934917
100.2010393968
100.201644262118
100.201533611678
100.201722711404
100.20053577347
100.202785692661
100.202143192023
100.20198084386
100.200926057446
100.200916674191
100.200384543272
100.201248629941
100.200199980095
100.200909648232
100.201357478436
100.200492011551
100.201482553242
100.201204319002
100.202657904361
100.20336602511
100.200846068873
100.196357033606
100.202690767349
100.205953135471
100.19719077854
100.203874026783
100.207257101927
100.19815127228
100.204968436333
100.20849958264
100.198916707557
100.205509343421
100.20934695471
100.198483345265
100.203370837179
100.206607586381
100.196058243903
100.201345985723
100.202253497724
100.199993720414
100.196133937116
100.196097896338
100.201946571788
100.199776166657
100.197837500986
100.192551292385
100.197475848374
100.197541119177
100.192661085311
100.185021891732
100.184649430046
100.162499881099
100.236046800488
100.235372168873
100.163440867543
100.164621841682
100.181402196801
100.199728877442
100.204008504953
100.193385296235
100.188591022858
100.193480769804
100.190034937065
100.197597186226
100.206933004982
100.202208286645
100.202431424819
100.205844980191
100.203155274149
100.202761764525
100.204280415597
100.20223678104
100.20203976072
100.202572504818
100.201259622245
100.201415336091
100.200994400431
100.200169942743
100.203213913516
100.20257393426
100.201291838862
100.201726773956
100.202577666553
100.201680456013
100.201629633098
100.201492017924
100.203126205624
100.202841650331
100.199960707864
100.204711526291
100.204873828174
100.201645410543
100.205695556702
100.206557388802
100.202544594152
100.207345158579
100.209130836456
100.203004474063
100.199679298657
100.183733539301
100.174825318831
100.176048499949
100.185682802393
100.184517270942
100.183664449938
100.192871415226
100.182377563546
100.183796462943
100.178026354226
100.177108864358
100.184909455987
100.229156305742
100.254042936686
100.231425888078
100.162120558674
100.164574378019
100.186941608343
100.156272898599
100.140395372997
100.205776543068
100.247795003524
100.271378902942
100.281020436693
100.287046447482
100.289173725634
100.288975304259
100.283975916362
100.275627537412
100.261692597521
100.268144944852
100.276712291785
100.283905492478
100.287047335636
100.289877373727
100.291979509171
100.29066616868
100.298372579867
100.301372880331
100.301034817151
100.30117366901
100.301172254742
100.301048132333
100.303199777082
100.303478607283
100.303960697801
100.304253572297
100.304273948453
100.30438962055
100.304359751311
100.304372401729
100.304504511673
100.304491359326
100.304579079127
100.304621231566
100.304629484723
100.304471076073
100.30425006353
100.303796246525
100.303135803534
100.302145680147
100.300830976486
100.299466059882
100.29741846224
100.295055631389
100.29240161745
100.289267785975
100.284888618892
100.280217827336
100.273850609847
100.254085867283
100.22866943445
100.184862624688
100.177487662374
100.178224284258
100.183961989979
100.19363972821
100.188324457735
100.192659418085
100.189997298889
100.197709622908
100.206910392619
100.202111109834
100.20237369362
100.205852410456
100.203158837518
100.202759903704
100.204300649161
100.202233328226
100.20204403231
100.202597173771
100.201258812532
100.201430019121
100.20100193707
100.200166109735
100.201698493037
100.203365187257
100.202851329614
100.201559635139
100.20106862773
100.201273023421
100.20151325007
100.20290179572
100.202408147868
100.203249861525
100.202225660159
100.201615570985
100.20234649869
100.201706673063
100.201228715037
100.20206138939
100.203219692471
100.20257446089
100.201294843835
100.201489384174
100.200494810477
100.201363726858
100.200915746503
100.200206049393
100.201255258762
100.200389773777
100.200916386157
100.200923631729
100.20199282768
100.202169532969
100.202807244246
100.200551645711
100.200362883589
100.200954508756
100.200403006784
100.200713382544
100.200556158747
100.20063346294
100.201304177329
100.201214778006
100.200742619773
100.20040930102
100.203015080964
100.20427662433
100.202225363345
100.201730971724
100.202259193424
100.202639693395
100.202724989084
100.202693539926
100.202680732115
100.202699867603
100.202618264629
100.202244370864
100.20220214313
100.204289453376
100.203029408492
100.203148336238
100.203932322635
100.20278062693
100.201850620353
100.202050000725
100.202552689771
100.201252912353
100.200396466031
100.202143760862
100.200965807618
100.20035201601
100.202321319294
100.203461577127
100.202386377949
100.201225295103
100.202597521084
100.205497844688
100.203966668983
100.20212036186
100.203307981159
100.207561538723
100.206006402582
100.201782327975
100.203189529227
100.20961322449
100.209027493278
100.199715802385
100.184452627065
100.181608098245
100.178352562885
100.180873641461
100.180456674324
100.184218750111
100.18294120372
100.179165786773
100.177668119541
100.17516789253
100.176744336768
100.17317998411
100.160412613374
100.168000363694
100.179787345105
100.180112006177
100.178643203292
100.197464128582
100.198500536634
100.210086009283
100.226532110342
100.21580980818
100.22031836451
100.241206417764
100.261230910773
100.242551828703
100.264116969349
100.274974471027
100.280349926931
100.274139845803
100.273087823971
100.280441892651
100.286178003687
100.289745837243
100.291773115618
100.290590164249
100.290966449347
100.289467992617
100.299139103579
100.298138609624
100.297753049521
100.300200396319
100.299933582633
100.300074623623
100.302131282792
100.302175056543
100.302196869072
100.301751366188
100.301310539458
100.300877998573
100.30118713681
100.300176366253
100.300485399411
100.300235523391
100.300517574873
100.300808816715
100.301317420243
100.301330883992
100.301023462725
100.301041178447
100.301272382175
100.30156805228
100.301903276551
100.302209311306
100.302024711631
100.301711166949
100.301799348558
100.301020745864
100.300752006801
100.300931268064
100.301061872404
100.301069588212
100.300849034838
100.300420579089
100.300251951657
100.299954494026
100.299857847376
100.299790953679
100.299994640645
100.299550743302
100.298989124809
100.299444303993
100.299790491094
100.299952500441
100.299981703819
100.299937664832
100.299720135388
100.299954532848
100.300153611495
100.300288907299
100.30003677613
100.300083656149
100.30002727431
100.300070621901
100.300085774666
100.30040236739
100.300126223546
100.300223616596
100.300009700671
100.299767270765
100.299482724204
100.300222366091
100.300801749893
100.300769565859
100.299996677966
100.300162282735
100.300929829978
100.300881764646
100.300735135614
100.300213876859
100.300007448205
100.300329052738
100.300933576909
100.301154614423
100.3009161141