/*--------------------------------*- C++ -*----------------------------------*\
| =========                 |                                                 |
| \\      /  F ield         | OpenFOAM: The Open Source CFD Toolbox           |
|  \\    /   O peration     | Version:  v1612+                                |
|   \\  /    A nd           | Web:      www.OpenFOAM.com                      |
|    \\/     M anipulation  |                                                 |
\*---------------------------------------------------------------------------*/
FoamFile
{
    version     2.0;
    format      ascii;
    class       volScalarField;
    location    "0.8";
    object      p;
}
// * * * * * * * * * * * * * * * * * * * * * * * * * * * * * * * * * * * * * //

dimensions      [0 2 -2 0 0 0 0];

internalField   nonuniform List<scalar> 
74874
(
100.129033106644
100.131417290218
100.131890660916
100.130480449492
100.13599564639
100.13658203687
100.133424175295
100.13503250667
100.137549530361
100.13762318212
100.13551071439
100.133974615565
100.137258297822
100.136708281154
100.137719656845
100.137903063008
100.137284434571
100.134145724062
100.131236718234
100.130667137852
100.132141553074
100.133458700617
100.13194015916
100.131590507212
100.137031744818
100.137167663044
100.132566974213
100.132832597268
100.133995343578
100.132174027558
100.132311534548
100.133809709723
100.13281450016
100.132514333273
100.13710054817
100.136602730716
100.131500666245
100.131916848589
100.133358868329
100.131779584099
100.13034852739
100.130873981697
100.133780504156
100.136926872965
100.137374409185
100.1371322814
100.130989228544
100.130248868252
100.129854815881
100.129288693267
100.128275934132
100.128281244263
100.127566303672
100.127913964866
100.128180939786
100.12873772685
100.129938477623
100.129426956213
100.127819344964
100.127532025179
100.127264966391
100.126811865616
100.126856221163
100.127394106376
100.127555100131
100.127890784085
100.129443771664
100.12997749704
100.128853289704
100.128336424714
100.128204392847
100.12786679546
100.128528511475
100.128538468259
100.129526765697
100.130143517436
100.130620695158
100.131399095998
100.130943266239
100.132513591292
100.132122067742
100.133264642039
100.133524012723
100.133308879541
100.132741737893
100.13226050597
100.131763710336
100.128607580964
100.126932556902
100.128963486024
100.127924871523
100.12423289758
100.125181844561
100.127793801967
100.1274913943
100.125747942356
100.123989591068
100.125571918378
100.127134625866
100.126485156765
100.125809124327
100.12539309477
100.123572993356
100.122508219969
100.123704920866
100.123649354894
100.122387803084
100.123526060288
100.125505910869
100.125988764504
100.126335229137
100.127343457101
100.12611641699
100.124469743597
100.1261125674
100.127751566685
100.128028358472
100.125357885306
100.12445037452
100.128333996288
100.129387833015
100.127448437462
100.129427594866
100.132989453551
100.133212980131
100.130801719
100.130565621117
100.124146481318
100.132296941159
100.131890286405
100.126459787887
100.123985646079
100.128623538857
100.128996140093
100.123325300094
100.123559168324
100.126458535573
100.124865202662
100.123692642914
100.121697064947
100.124583841856
100.127159664297
100.123399059721
100.122842185638
100.125081046291
100.121456068079
100.119108255431
100.121292724762
100.121257894845
100.119046402086
100.121428466016
100.125192266489
100.123214528492
100.124062753116
100.128124687233
100.125567354517
100.122275385849
100.124108662592
100.125169361963
100.126744034697
100.12376886188
100.123487977569
100.129571388182
100.129094136467
100.124686344029
100.127716609682
100.134507881888
100.135386147735
100.125081913501
100.152217449677
100.150175451622
100.122756063463
100.122619208
100.127946676109
100.117487725863
100.119021251786
100.130073748525
100.126447078624
100.123594671251
100.123524821235
100.128430812214
100.118004412203
100.119149519306
100.119407464824
100.119159696666
100.12598333285
100.12224761962
100.122211932306
100.125845772533
100.119288268641
100.119556606543
100.119325325834
100.117917158642
100.116367955669
100.11930914897
100.117065903432
100.108427246717
100.111030144405
100.082804167306
100.078916008744
100.079279483841
100.085049139363
100.116275589596
100.110593057997
100.093549429965
100.086559648125
100.080238930418
100.080993256616
100.085969656124
100.082952221528
100.083917966032
100.087214961497
100.087202321436
100.083869430433
100.082935679535
100.085605570489
100.084786120593
100.078581335292
100.077310798794
100.081839539266
100.079882108035
100.07971322051
100.078712974759
100.07873840508
100.084963539702
100.084168883819
100.084484356207
100.084869934615
100.080135830493
100.080708829665
100.082056758759
100.082032246378
100.080690598261
100.0799256891
100.080916787373
100.080142375131
100.078661194116
100.0786939599
100.085489445206
100.084551788431
100.084213910302
100.08498174359
100.086260128284
100.086203463864
100.085584603016
100.085763349622
100.086017160057
100.086049918073
100.08514293032
100.084860785904
100.084851907039
100.085033583898
100.084674024267
100.084444399546
100.084102089421
100.085026137672
100.08613637933
100.086446261142
100.085701933012
100.085597039363
100.083871586695
100.084159922793
100.08414076184
100.083935156376
100.084088948052
100.084088327511
100.084117544667
100.083981073558
100.085698623488
100.085672181394
100.085915290611
100.085836941211
100.085671818646
100.085511087791
100.08380635783
100.083991843003
100.084132747573
100.083847912158
100.081525815365
100.081577494522
100.081690264264
100.08171834797
100.08163310584
100.081750148878
100.081700431819
100.081750115648
100.081701732027
100.081687422917
100.083960952791
100.08403386551
100.08396385368
100.083967433234
100.081642703032
100.081491990637
100.081572990457
100.081587853863
100.079587886828
100.079576263214
100.079628369883
100.079687513833
100.079746668325
100.079671647808
100.079758477511
100.079726951087
100.079775555651
100.079740539826
100.079728771604
100.079750002812
100.081711721922
100.081616585124
100.079661592817
100.07967893074
100.07956760767
100.079639211274
100.077904089985
100.077862899926
100.077811200874
100.077842860881
100.077886016603
100.077964248691
100.077907598425
100.077988234825
100.077966910198
100.078015035642
100.077996238982
100.077991823383
100.078001883791
100.077917132626
100.077932004949
100.077853181531
100.076050822158
100.076053014062
100.076010626952
100.075909722837
100.075927420588
100.075972879792
100.076076472438
100.076046741516
100.076138403084
100.076118060617
100.076187613179
100.076200695183
100.076207020302
100.076203535298
100.076105409748
100.076117573769
100.074039302636
100.073962038539
100.073930087082
100.073878019597
100.073631491673
100.073643188497
100.073790907518
100.073901689172
100.073880785388
100.073999732655
100.074000518641
100.074105232784
100.074158527857
100.074213479694
100.074199385732
100.074084713286
100.071522314849
100.071437963922
100.071320726124
100.071294478784
100.071232987883
100.070636905559
100.070602493133
100.071030169657
100.071132776883
100.071146773279
100.071299305071
100.071367839263
100.071559529643
100.071622526658
100.071701887417
100.071645169958
100.067820180207
100.067642978458
100.067639888403
100.067425632621
100.067229359181
100.067428734802
100.066193400595
100.06604992308
100.066979820085
100.066860904039
100.067022267668
100.067289069009
100.067331093417
100.067693841475
100.067872574659
100.067927626272
100.061854594674
100.061696797241
100.061386529344
100.061507867619
100.061360766294
100.060476706081
100.06136039213
100.058837814997
100.058713489167
100.06067477541
100.059778868437
100.060495861546
100.060765916705
100.060763622979
100.061302104853
100.061686850122
100.039387499932
100.039596156272
100.036332566613
100.036041858973
100.039671202063
100.040250430543
100.035489918864
100.035959771532
100.035877396869
100.035786128474
100.035336900559
100.034237435571
100.039078502403
100.038743360873
100.035491725996
100.035928057043
100.041758526487
100.04455679304
100.044634061334
100.042489966237
100.042270333691
100.043911619373
100.046137263911
100.039928649262
100.026759296227
100.06913900268
100.104783775411
100.104462649237
100.068002473763
100.035201080223
100.035414397215
100.174034694323
100.29855204603
100.224009892592
100.222046343171
100.175239500036
100.159878185885
100.145266431016
100.038930481776
100.045468215314
100.043657587604
100.041675733941
100.151048453436
100.151702968769
100.190489597719
100.129432864415
100.130168897247
100.191853509742
100.152961523811
100.151771855936
100.188143221466
100.12509799797
100.122877011168
100.178998628006
100.145588396963
100.162793070283
100.1778189208
100.297830950501
100.367892323372
100.346230639089
100.342956945853
100.361734810535
100.340051923372
100.293605600582
100.459037587749
100.485281730821
100.492350951738
100.526243628745
100.596398141592
100.600600601591
100.521366008888
100.454379173436
100.387946490385
100.350023534874
100.374003012007
100.372521265892
100.369450640033
100.369552872953
100.370473755097
100.3714564749
100.372723531535
100.374536091734
100.376887823616
100.379626261899
100.382489174188
100.385023715122
100.386632268042
100.385417312356
100.383734539065
100.381737605292
100.379551963172
100.377350770746
100.375156119883
100.372970404452
100.370900552903
100.369079516553
100.367599770272
100.366463115908
100.365596341866
100.364896725843
100.364303376679
100.363799296685
100.363398125819
100.363156154682
100.363191608664
100.363676044658
100.364757506202
100.366460430253
100.368338834884
100.370085651722
100.371697910899
100.372818132852
100.372710569606
100.372641193578
100.372014528065
100.37147829451
100.369723527915
100.36783590876
100.365989818845
100.364447708954
100.363572121878
100.363255253375
100.36331379792
100.36358652594
100.363964972219
100.364415099484
100.364936059408
100.36556176419
100.366352536842
100.367404824565
100.368783376474
100.370488477614
100.372439676833
100.374514934863
100.376577390813
100.378589163637
100.380529137882
100.382270469813
100.383753859111
100.384834335546
100.385366381353
100.387232388982
100.38849786406
100.387856329649
100.386557529741
100.384742607233
100.382571440301
100.380206106483
100.377838939004
100.37552200955
100.373261646316
100.371124040783
100.36923746655
100.367689785976
100.366484283458
100.365555747047
100.364796433546
100.364148598793
100.363615325077
100.363228223563
100.363069417447
100.363240880527
100.363900631089
100.365162974744
100.366976890651
100.368839005805
100.370500453399
100.37199364273
100.373051100011
100.372935674387
100.3733234171
100.373567875029
100.373574745115
100.373805224234
100.373695368699
100.373933578894
100.373811206754
100.374040089055
100.373963467842
100.374013891146
100.373847345425
100.373766060754
100.373680941247
100.373557982503
100.373563437653
100.373499445578
100.373723801307
100.373911034851
100.373854746455
100.373924999238
100.373712183889
100.37382218717
100.373591376516
100.373702633627
100.373475104606
100.373462517235
100.373218234365
100.373059071039
100.373324944767
100.373352667079
100.373573314118
100.373480149047
100.37369279037
100.373627262803
100.373809638484
100.373735338039
100.373744231099
100.373566952858
100.373541210563
100.373474644781
100.373478308948
100.373401273842
100.373518309429
100.373634132239
100.373653033275
100.373487166771
100.373567393355
100.373372813904
100.373452071231
100.373239245266
100.373201332385
100.372918927134
100.372715958301
100.373010642946
100.373081039539
100.373285707497
100.373258512539
100.37339159413
100.373471802436
100.3733872477
100.37358173585
100.373669827034
100.373743289109
100.373858209542
100.373972212217
100.374094926257
100.373932115901
100.374170675612
100.374098448747
100.374165963387
100.373997251169
100.373922609184
100.373699571144
100.373374653248
100.373037512381
100.372875520865
100.372748541205
100.372599737369
100.37248395366
100.372553053666
100.372708153355
100.372907864493
100.373046771104
100.37318146068
100.373551401907
100.373425518532
100.373300291574
100.373232708255
100.373350126013
100.373308105848
100.3729562903
100.372677656297
100.372608230929
100.372485444362
100.372585451702
100.372628163365
100.372888012079
100.373209035034
100.373287896975
100.373326744432
100.3734491022
100.373530173706
100.373645624236
100.373735049848
100.373821284781
100.37391462571
100.374029742962
100.374146040409
100.374190569635
100.374252252591
100.374057977868
100.374007457478
100.373731970822
100.37351012798
100.373210772157
100.372746318612
100.37229276019
100.371942427963
100.371791140568
100.371564254204
100.371571657511
100.371847323953
100.37217130816
100.372611432764
100.372397568245
100.372122731333
100.37176935619
100.371600605332
100.371440215805
100.371259367298
100.371142066192
100.371310657062
100.371538462044
100.371796760471
100.371928967424
100.371973207325
100.371683477685
100.371875236799
100.372335083688
100.372288497636
100.372690545101
100.372927315607
100.373246214865
100.373428083747
100.373451316088
100.373569441251
100.373674246818
100.373788006132
100.373691686826
100.373925311012
100.373808701385
100.374060889056
100.374165767459
100.374038361631
100.374266468962
100.37437787537
100.374328392591
100.374394092596
100.374270607897
100.374034201052
100.374016338626
100.374020774669
100.374141209055
100.374142822734
100.374302681102
100.37425229009
100.374311016479
100.374139599832
100.374229098225
100.374458971945
100.374407145481
100.374467743547
100.374390319403
100.374205403452
100.374121463146
100.373675225517
100.373486372632
100.373373752272
100.37297321702
100.372504186213
100.372152207263
100.371574699663
100.371393949339
100.371119846727
100.370873504744
100.370656625569
100.370455795476
100.370160759657
100.369877723143
100.369785597185
100.370097768189
100.370474417346
100.37071235997
100.370894809491
100.371118922295
100.371326378924
100.37106667679
100.371197531721
100.370968718799
100.37129887742
100.372021387894
100.373173960243
100.373481706247
100.373565707099
100.373796302338
100.373799985229
100.374027855525
100.373913425584
100.374023216346
100.374268183754
100.37435648598
100.374447943905
100.374323638496
100.374549473716
100.374501872124
100.374559099803
100.374476338525
100.374286759372
100.374205924081
100.373815165487
100.373616231356
100.373261288504
100.372859267055
100.372547988521
100.372344125747
100.371799163228
100.371645449359
100.371475306343
100.371343769323
100.371361955283
100.371069341789
100.370790367608
100.370588750886
100.370227196113
100.370413489361
100.370760964481
100.371053899855
100.371203424189
100.37091185876
100.370615278569
100.370219193346
100.37029921617
100.369841802158
100.369428233418
100.369102587272
100.368855783901
100.368639567242
100.36890432899
100.369228959312
100.369565095416
100.369919169754
100.369678311119
100.369798852146
100.369867083559
100.370071430017
100.370154892151
100.370852912505
100.371686185627
100.372910881914
100.373238188267
100.373382011984
100.373460859013
100.373693007154
100.373699335967
100.373800985747
100.373927096462
100.373918525088
100.373913121446
100.374142264077
100.374233796735
100.374119564224
100.374209659125
100.374290522593
100.37451681938
100.37439810625
100.374616124898
100.374562654653
100.374621181588
100.374532889768
100.374393421108
100.3742693154
100.373958352769
100.373735896286
100.373366353505
100.372962442109
100.372687070988
100.372183218478
100.372079380782
100.371892920217
100.371737351189
100.371615000912
100.371647088215
100.37150216101
100.371721941979
100.37144222352
100.371151240511
100.370854320269
100.370526085412
100.370163132743
100.369757961729
100.369358453279
100.368825311594
100.369109491866
100.369618335104
100.370088837267
100.370335687885
100.370608862655
100.370913483246
100.37121194907
100.371231821105
100.371126887918
100.370767204596
100.369951194187
100.369764680516
100.369637078429
100.368954150807
100.368446173456
100.367087256806
100.36754654098
100.368386456037
100.369188068178
100.369961621334
100.370268210715
100.370055689709
100.36947316068
100.368683831558
100.367922362457
100.366947041934
100.36608228544
100.365608619767
100.363591882146
100.362227889898
100.363976544115
100.365049762524
100.365839389646
100.366809725594
100.36665862433
100.365288661597
100.364492515728
100.363206790929
100.361659277334
100.360666526579
100.360503305678
100.361699406184
100.363440564018
100.364691318098
100.365427708032
100.366507493398
100.367173720031
100.368045250014
100.369127135062
100.369892434504
100.370642412397
100.371260772049
100.370585386789
100.370884154856
100.370657206025
100.371520697471
100.371116988403
100.370670415168
100.370172456887
100.3696531137
100.368979986215
100.36812852741
100.366843399303
100.366192082102
100.364851271638
100.364588579265
100.364189578671
100.362473685391
100.361802886898
100.360589969526
100.354973191181
100.356629396142
100.356960994125
100.35928561395
100.360606316611
100.364120747785
100.365173684872
100.368047396689
100.368854897744
100.370915133228
100.370129760515
100.369033548962
100.368970133323
100.368958842463
100.369037774141
100.36948725747
100.368775069382
100.367070487169
100.366619599838
100.366484091099
100.366546884619
100.368788470466
100.370788653974
100.370776087761
100.37154546898
100.372036409958
100.372029612015
100.372439725176
100.372193108991
100.372363942269
100.372430919216
100.372497027495
100.372434920468
100.372347455711
100.372191930926
100.371683108113
100.371462644719
100.371631205584
100.371710377504
100.371603588056
100.371836257108
100.371826232419
100.371948368712
100.372253213035
100.372297557312
100.372492028925
100.37218086235
100.372416213135
100.372479389545
100.372143027346
100.372329002524
100.372018609513
100.372011731827
100.371561556626
100.371482683273
100.371941274715
100.371958700437
100.372248108973
100.372119198927
100.372373120782
100.372161433622
100.372372156261
100.372185086258
100.37213709704
100.372043633836
100.372140337993
100.372276874227
100.372185643616
100.37204778339
100.371887084074
100.371543205733
100.371084562557
100.370638262861
100.371038684604
100.371116429691
100.371511821505
100.371420382441
100.371842944738
100.371995263519
100.37217666067
100.371939836509
100.372151621321
100.372203899151
100.372031621662
100.372145994201
100.371783529869
100.371856057455
100.371619430096
100.370993151366
100.370764314654
100.369971132558
100.370128164044
100.370244217826
100.371174501977
100.371649444599
100.371674452321
100.372043312162
100.371820967321
100.372166884895
100.372125099231
100.371925213497
100.372092762031
100.371920229042
100.371707174914
100.371534243126
100.371808434419
100.371922367041
100.37204553175
100.371995711565
100.371891226323
100.371670118038
100.371311686795
100.37062182089
100.369873750174
100.370569534347
100.370766050756
100.371259930758
100.371228762487
100.371661072965
100.371868127199
100.371986643343
100.371722514953
100.371985480039
100.371981805978
100.371850317986
100.371866470806
100.371998108299
100.371602236462
100.37167008132
100.371295397952
100.37051615755
100.370626146964
100.371396050241
100.371433624549
100.371952290966
100.37172744883
100.371830218272
100.371875707406
100.371846511821
100.37186722409
100.371877598082
100.371982239227
100.370430636068
100.371346049178
100.371375686305
100.371606241849
100.372086385499
100.372216052438
100.372225894113
100.37247922662
100.372448904382
100.372560655638
100.372662942457
100.372524874881
100.372654928537
100.372496025708
100.37250567661
100.372568777504
100.372586808798
100.372643091675
100.372795170468
100.372833867395
100.372843138355
100.372550366062
100.372506959864
100.372548848925
100.372325138401
100.37198474462
100.371668255773
100.370971416626
100.370349978307
100.369719084638
100.369969664603
100.370199287492
100.370164044873
100.370077488978
100.370505756303
100.370598741492
100.370745149331
100.370749084269
100.370365915477
100.370739407629
100.371003674596
100.371323358415
100.371773310071
100.372058338012
100.37219062054
100.372230137725
100.372272193641
100.372284344806
100.372365454924
100.372586843116
100.372541148207
100.37275810128
100.37266947643
100.372880024084
100.3730846608
100.373008188176
100.373017941821
100.372745985976
100.37263310696
100.372370993999
100.371918889226
100.371407437066
100.371318073955
100.371497543358
100.371647664015
100.372232192142
100.371761369812
100.371873969968
100.37221239125
100.372340524978
100.372556335682
100.372573660084
100.372710511995
100.372631820522
100.372931811243
100.372828447775
100.372876958502
100.373207571754
100.373144631739
100.373149215058
100.373009850372
100.372803497512
100.373004520196
100.373051275616
100.373126788673
100.373245447148
100.373317329819
100.373236616857
100.373087478657
100.373102018604
100.372852211044
100.372827092151
100.372638888432
100.372263818706
100.372255208797
100.371714984715
100.371309730584
100.371230014004
100.370971509604
100.370871925719
100.37083185555
100.370775337422
100.371615654382
100.372132331995
100.372192540973
100.372407529644
100.372442617841
100.372722874746
100.372909870723
100.372688771053
100.373119803844
100.373099520566
100.37322943556
100.373332741676
100.373465656975
100.373565003015
100.373684616003
100.373787975497
100.373918390287
100.374019309988
100.374133548188
100.374224397576
100.37431906035
100.374392869271
100.374466386693
100.374365098547
100.374576540969
100.374461290611
100.374669143827
100.374623819785
100.374691825982
100.374578200667
100.374522937838
100.374421281831
100.374367236534
100.374149681828
100.373885649219
100.373503039906
100.373120702669
100.372863528316
100.372383513428
100.372309103367
100.372155051079
100.372084408137
100.372083343222
100.371840057295
100.371712984085
100.371938240232
100.371936063448
100.371976116925
100.372062529052
100.371816094057
100.371574985983
100.37132357547
100.371038349107
100.37071829008
100.370284627553
100.370524611928
100.370920004374
100.371201612486
100.37146593731
100.37172293813
100.371700574912
100.371425791671
100.371150404899
100.370856706518
100.370472284025
100.369956886522
100.370312624629
100.3698199146
100.369310427311
100.368834815286
100.368418682417
100.367726027419
100.368116862032
100.368731979136
100.369085177593
100.369537920792
100.369513511129
100.369395181043
100.369096447605
100.368889128079
100.368659364137
100.368767381512
100.368435925432
100.369577098287
100.371589719743
100.371948600223
100.372312476228
100.372328985375
100.373307854032
100.373184604102
100.373701797763
100.373807889182
100.374016055508
100.37401568508
100.374113543989
100.374323078903
100.374399698555
100.37447259198
100.374523815387
100.374426769093
100.374620570124
100.37452446789
100.374707708086
100.374667153476
100.3747247195
100.374610796705
100.374565621932
100.374432373233
100.37419125654
100.374003650875
100.373634796
100.373312162352
100.373043556643
100.372607747851
100.372503155245
100.372203319694
100.372313011855
100.372120872753
100.372254934989
100.372232898062
100.372354028124
100.372136563096
100.37214566286
100.372233618543
100.372317228766
100.372268713732
100.372364664099
100.372121893772
100.371891386657
100.371646427212
100.371362902342
100.371057629321
100.370707310467
100.37025443966
100.36983517545
100.369448192075
100.369808533923
100.370264077296
100.370541018279
100.370910016505
100.371218106146
100.371494985372
100.371747445944
100.372002210177
100.372026856137
100.371936406608
100.371502504617
100.371884981062
100.371397033112
100.370937118395
100.371422134758
100.370980239965
100.371267438064
100.370929960036
100.371904191328
100.370945544747
100.370583028625
100.370097111104
100.369496208932
100.368806640651
100.368068659896
100.367261458129
100.366386263741
100.365529494689
100.363631943959
100.363391145478
100.362886302647
100.362747792712
100.361384802934
100.360289339614
100.359771232892
100.359760872379
100.353707008052
100.354145787962
100.352753424902
100.353466215603
100.353140810862
100.354881875569
100.355803035882
100.354867577829
100.353387287852
100.354949656784
100.354618492283
100.354956212058
100.355810000335
100.356017729566
100.354937159655
100.355334358548
100.358465163951
100.353934872805
100.353641567371
100.355667448011
100.355692295496
100.356118335936
100.357739893127
100.359238628099
100.360114151838
100.359588144463
100.358029100261
100.359096306068
100.360288257126
100.359215289101
100.357689303974
100.357806394969
100.359603601378
100.361082745736
100.362989729572
100.364528942785
100.365326509634
100.363610556204
100.364967727819
100.3664589923
100.367027010667
100.368452315255
100.367515321335
100.368679231687
100.369616391444
100.370443001533
100.371087946158
100.371657468456
100.371850074068
100.372175397683
100.372025670139
100.371237337368
100.371657294847
100.371550182786
100.372191065302
100.371304948646
100.369046305939
100.368655168733
100.368223352329
100.367733885647
100.367143718283
100.366497938343
100.365780177359
100.364997532283
100.364270282918
100.363117061937
100.362993242606
100.363056471911
100.362999101711
100.363000551633
100.362331016556
100.362280232726
100.363636054196
100.364166496189
100.365243467345
100.3668825662
100.369037090225
100.369430602638
100.367348714762
100.365565683028
100.364236002009
100.363578096263
100.363398698061
100.363509184524
100.363771680792
100.364106944332
100.364493316089
100.364937192035
100.365475728358
100.366172165664
100.36709668152
100.368314855654
100.369847498783
100.37165522607
100.37363489723
100.375603773796
100.377417533382
100.379052613581
100.380494300196
100.381727633058
100.382643160663
100.38309889041
100.383062494903
100.385339930644
100.387216394687
100.388489934859
100.389060308568
100.389063650797
100.388400589445
100.387056995278
100.385169461012
100.382909591497
100.380442555017
100.377974981512
100.375578156103
100.373260735372
100.371078765947
100.369163838055
100.367597008835
100.366370691203
100.365421183699
100.36463512435
100.363972664685
100.363451674535
100.363131725973
100.363096928128
100.363428079365
100.364244538332
100.365641791925
100.367517099777
100.36934872748
100.37092902399
100.371378800144
100.372679295514
100.373573317787
100.373456972134
100.373731041464
100.373451738518
100.374024495698
100.374130760336
100.374122082135
100.374209183893
100.374204199967
100.374285958346
100.374360792683
100.374419543471
100.374567367597
100.374479774761
100.374657309912
100.374577411002
100.374738743323
100.374709663862
100.374759098179
100.37466240658
100.374619368996
100.37449562362
100.374265438966
100.374100400008
100.373662665205
100.373485672525
100.373271394408
100.373140989714
100.372894378405
100.372747430132
100.372464498401
100.372511773859
100.372457104453
100.372451986098
100.37254454427
100.372468881176
100.372695067426
100.372530637661
100.372279472597
100.372468648603
100.372515179588
100.372552538106
100.37263888103
100.372440613495
100.37241251463
100.372079147313
100.371825682179
100.371575069949
100.371270497517
100.370946258926
100.37056003214
100.370288947371
100.370481197918
100.3708805253
100.371200597985
100.371511525799
100.371763411666
100.372018866473
100.372282202436
100.372284367213
100.372341511919
100.372240199871
100.372064608983
100.372239213862
100.372051982442
100.372288906311
100.371865492807
100.372284754226
100.371933259287
100.371691925558
100.371961495553
100.372054286244
100.37191387035
100.37246190361
100.371713011292
100.36950658186
100.367751760133
100.366565961524
100.365981099316
100.365572182966
100.365115891468
100.364679194095
100.364163189126
100.363736851336
100.363336579532
100.36307936142
100.362819281093
100.362746762479
100.362760156265
100.362516132955
100.363047889217
100.363353693863
100.363595951641
100.363482549175
100.363429507678
100.363522194946
100.363699869168
100.36361866849
100.362844249515
100.363475738879
100.363354269984
100.363130352444
100.362191155451
100.360861381499
100.360670126296
100.359538546185
100.359403649465
100.353769688547
100.354667594859
100.354358241816
100.355438644508
100.35550675521
100.357293168197
100.358123747865
100.357386700531
100.356493363626
100.357140112348
100.357643821394
100.357514612853
100.357866663284
100.358341355159
100.35757606027
100.360226730612
100.360310007574
100.358665703413
100.360346374506
100.360396443824
100.356453025784
100.356168325709
100.354220731773
100.3581030826
100.360744270472
100.364213710525
100.367358807774
100.368799621428
100.369388397287
100.370506608468
100.371243127987
100.371449760828
100.371393099144
100.37181897901
100.371673288372
100.371906743198
100.37192793769
100.371715400963
100.371837999454
100.371582842623
100.371294233303
100.371636156212
100.371803799728
100.371736820275
100.371477572893
100.371061625559
100.370435602846
100.371175370367
100.371270112193
100.371654365627
100.371589022259
100.371815592276
100.371995035945
100.371944664664
100.371667055618
100.371897680248
100.371958358871
100.371541775666
100.37172123706
100.371847368706
100.37140848289
100.371416163633
100.370876098379
100.369982705722
100.368867101242
100.368395879012
100.366463095908
100.368137450516
100.367968566825
100.36918754086
100.370110137637
100.371039219937
100.371480284044
100.37146507634
100.371819838459
100.371664302313
100.37201716792
100.37185440067
100.371825524724
100.371830733325
100.371753323339
100.371684687418
100.371551213103
100.370464914506
100.371309806946
100.371459986462
100.370508495374
100.367907894715
100.369128530703
100.369430057017
100.370751720915
100.371411783396
100.371481823011
100.370934965848
100.368360218951
100.369729174263
100.370218394968
100.371141667909
100.371566845455
100.371267047358
100.371013000191
100.370793456206
100.370350026674
100.369134913413
100.370116337297
100.371122139876
100.371206058742
100.371304725878
100.36974890775
100.370530245393
100.370743924534
100.371446693798
100.371906676768
100.371992344979
100.371985591274
100.372028866588