/*--------------------------------*- C++ -*----------------------------------*\
| =========                 |                                                 |
| \\      /  F ield         | OpenFOAM: The Open Source CFD Toolbox           |
|  \\    /   O peration     | Version:  v1612+                                |
|   \\  /    A nd           | Web:      www.OpenFOAM.com                      |
|    \\/     M anipulation  |                                                 |
\*---------------------------------------------------------------------------*/
FoamFile
{
    version     2.0;
    format      ascii;
    class       volScalarField;
    location    "1.3";
    object      p;
}
// * * * * * * * * * * * * * * * * * * * * * * * * * * * * * * * * * * * * * //

dimensions      [0 2 -2 0 0 0 0];

internalField   nonuniform List<scalar> 
87341
(
100.09751857347
100.099530644922
100.095924733226
100.100436602936
100.107453326587
100.107689673748
100.105725152562
100.10632594278
100.106533703177
100.106857072189
100.107026421831
100.106758369551
100.108539268775
100.10808532232
100.110318468953
100.110367541252
100.107879314805
100.104439429018
100.101934930968
100.10160116284
100.101472322561
100.10290088495
100.1007063003
100.102453215641
100.104767678759
100.108918954853
100.10353772466
100.102493934788
100.101736174085
100.10153762099
100.101415666697
100.101837904442
100.102427998752
100.103421613345
100.108664701389
100.104605793159
100.102231046936
100.10040940627
100.10254141185
100.101085411918
100.10127045044
100.101610316302
100.104140759507
100.107573043797
100.10992625639
100.109774754761
100.10302418223
100.102099258959
100.099239112899
100.099341730644
100.09967683787
100.099522920487
100.099462700817
100.09925788937
100.09690314671
100.100305787937
100.103746196728
100.102201327515
100.098938355322
100.097919534599
100.097209340345
100.097890158759
100.097835651553
100.097063583166
100.097980529306
100.099013419921
100.10235295428
100.103959921133
100.100559538353
100.097151212382
100.099589144483
100.099803452793
100.099804187346
100.09993831818
100.099498056921
100.099396137954
100.102406333611
100.103433000914
100.101019611157
100.10421523845
100.107296112892
100.108814326515
100.106670629489
100.1064329633
100.107650543544
100.105810733762
100.103341690432
100.099086492568
100.104549842206
100.093030659205
100.081831817282
100.087838445132
100.08904770215
100.099167256016
100.094000994376
100.095049021831
100.097642264693
100.096622696596
100.096100302733
100.096242847444
100.095544080851
100.099912748219
100.100486561874
100.096325786298
100.096746760071
100.093968245525
100.09282436076
100.093817160453
100.093835908629
100.092895971883
100.094018948976
100.0967649694
100.096468852143
100.10065780005
100.100196903141
100.095717809544
100.096619373392
100.096449381735
100.096911975853
100.097927648161
100.095224541972
100.094090176781
100.099617329466
100.099919010437
100.096579910942
100.100288236802
100.106683778948
100.111673139896
100.104624579406
100.10444671332
100.109263513682
100.124603354458
100.094073482106
100.094640678381
100.079256209373
100.052433246117
100.053322170966
100.049057973701
100.049551246232
100.055698690608
100.085939461033
100.097333648422
100.09412219743
100.0938073483
100.098478565172
100.105118914041
100.087141079737
100.087731388598
100.089063840854
100.097982020924
100.093185924409
100.093184078199
100.09795167928
100.089106449792
100.087805935114
100.087269689389
100.08572723732
100.086210610064
100.089511032542
100.087760437269
100.047866281666
100.049943167967
100.051173224488
100.050940696239
100.049980821906
100.050021093042
100.052151386235
100.052543283237
100.056200953021
100.085550702291
100.080700881624
100.064356165722
100.058638319866
100.058477879954
100.055587153264
100.056538892189
100.051010375402
100.051185033772
100.053540835917
100.05725345432
100.05726413392
100.053560445176
100.051185759014
100.056344917903
100.055441808603
100.049122934258
100.050002856392
100.056402697523
100.05682725802
100.055947992642
100.05563252734
100.056546289953
100.056395809772
100.055522300008
100.056621389907
100.056702403369
100.057378498848
100.05753952175
100.056904477501
100.052187810744
100.052992816974
100.052986235908
100.052242899774
100.05118155584
100.052306608741
100.051926032986
100.055401895288
100.056557336895
100.057315922588
100.057620800254
100.056939788257
100.056860987557
100.057544327896
100.057427885126
100.055278156963
100.055030050544
100.055141893818
100.05533045852
100.055433353331
100.055323083099
100.05712687098
100.056243936985
100.05623026144
100.056827736047
100.056314710463
100.055393905083
100.056551650785
100.055020603706
100.054910443389
100.055105500319
100.05519777407
100.054997498109
100.055026302921
100.055280795664
100.052840157683
100.052883023927
100.052806183034
100.052912008229
100.05298739196
100.053085499678
100.053071624968
100.053064332444
100.055301757983
100.057095098253
100.057406297291
100.057208836146
100.055196344893
100.052893161607
100.052819095383
100.052700019323
100.052735677915
100.052745184435
100.052685596711
100.052731666266
100.050740935499
100.050878093998
100.050896376898
100.05077206591
100.050881809911
100.051037624475
100.051189923499
100.051200118719
100.051207598495
100.051203349667
100.053053745851
100.055358598507
100.055774280937
100.053275811396
100.051476198768
100.051011907136
100.050862952473
100.050773620658
100.050875165262
100.050870947733
100.050729583721
100.048724860943
100.048656961975
100.048976449708
100.048953395352
100.048710848197
100.048841573287
100.049210775804
100.049491307013
100.049502559365
100.049532168468
100.049602126603
100.049316505262
100.048954359259
100.048881805712
100.049110621009
100.049091882827
100.046794258733
100.046091201088
100.045920186837
100.04652798345
100.046584091906
100.046111210864
100.046234531122
100.046923422038
100.047410992407
100.047445350538
100.047539199594
100.047682225819
100.0472335627
100.046544491892
100.046483114563
100.046897495786
100.044564323332
100.044311487798
100.04282509105
100.042429941147
100.043765860255
100.044025686059
100.043813786318
100.043999319488
100.044516474248
100.045372022542
100.045179506974
100.04540407023
100.045970170164
100.045229529699
100.044699710505
100.044484425436
100.039952847473
100.034297420556
100.033003216638
100.035616858062
100.035630779376
100.03371780353
100.033962138556
100.038971384872
100.040019485134
100.036831926423
100.03975782222
100.041439816699
100.041897073281
100.040981972029
100.03821485623
100.041346327488
100.063175786611
100.062620939335
100.063763205723
100.066244471534
100.073922252664
100.063720362386
100.063392762301
100.072700977264
100.070366262045
100.063129476824
100.069906934049
100.082023074397
100.080309046623
100.0691274835
100.060467741263
100.059361717694
100.056669737257
100.061581203408
100.06409100247
100.069376179941
100.063188222724
100.055915053686
100.055293766363
100.052315699062
100.047060754486
100.045967291527
100.050005449599
100.053125898861
100.053835823003
100.057217084337
100.070712184299
100.064361604766
100.06857037404
100.062170211016
100.063667115476
100.058059927381
100.069326595713
100.067786539518
100.066552716084
100.071674651405
100.091617305992
100.128594642039
100.172253181011
100.223167669022
100.273561785356
100.327742365702
100.370261856996
100.403239906942
100.442221295557
100.467487282415
100.481033756463
100.490620476435
100.458925766247
100.462782423289
100.465803737333
100.46668450203
100.46513454636
100.46358557264
100.465468141266
100.473141874058
100.470518141541
100.472194847851
100.475503964347
100.476895157093
100.476777908553
100.475109350161
100.474303219782
100.451520687805
100.464398099191
100.478725986083
100.469810930714
100.461616910803
100.449763369539
100.449545485639
100.455034212334
100.449325557407
100.43014000099
100.436529347356
100.445854665114
100.447843654698
100.438781431777
100.439166176717
100.444711441081
100.454131465461
100.452168672022
100.465641974468
100.416823741256
100.428438821368
100.433332897512
100.434285216853
100.430408243548
100.417578201775
100.421997467848
100.424331130413
100.417856362311
100.412570294091
100.416357504436
100.420075143357
100.419685041158
100.41462701557
100.405603224971
100.410422154839
100.420514089368
100.420685159789
100.464303543439
100.460947696048
100.405896947245
100.410333714374
100.407204864755
100.401229604362
100.408529283265
100.399308709637
100.394250622497
100.409355571313
100.410898348816
100.40882216562
100.410204487431
100.40822476188
100.416965693593
100.410424952119
100.406834667313
100.417901904363
100.433111491189
100.457393566688
100.45264031005
100.46220444351
100.462813343555
100.463342648805
100.463943312643
100.46693322563
100.46865740057
100.471204303947
100.467268121648
100.467769884271
100.470005990571
100.472323970537
100.465523380963
100.473216658172
100.456958631442
100.444789019722
100.444125061855
100.457489325699
100.451712940434
100.44385409507
100.439625906682
100.428634243156
100.422204240501
100.44410116095
100.460696953895
100.460657254502
100.460252053114
100.414735558027
100.413856239078
100.412586614054
100.406542317119
100.40003950898
100.406506425608
100.404834013786
100.397667067796
100.401268870514
100.40411960379
100.400381062076
100.402538943455
100.400130177134
100.402166992952
100.402291116311
100.397301017731
100.401437096973
100.400325913352
100.403190087938
100.39922396219
100.396701770471
100.404501229082
100.409113936054
100.418797137403
100.429711681934
100.432027082401
100.428087479588
100.421308316684
100.426540211279
100.459449965731
100.488218034122
100.473262619915
100.493927541887
100.50977188979
100.473276998713
100.450430156026
100.447605885144
100.461741730905
100.467756084166
100.468870846128
100.502383531737
100.492610936154
100.49670219173
100.479692700036
100.487119381065
100.476848205465
100.475007781537
100.479440846999
100.475182189112
100.485960470582
100.467500849982
100.481116208805
100.478033791666
100.480334804129
100.484086400907
100.493614283563
100.503349501328
100.505752559425
100.490328074085
100.489151246105
100.49088806533
100.494940351728
100.481150895251
100.453372441661
100.42203918919
100.423227816683
100.431769448421
100.43764289474
100.436231836405
100.427480156758
100.416586374021
100.407693014958
100.409473285304
100.394244914709
100.389196754422
100.401724859955
100.404122200807
100.414022285776
100.415677089679
100.407657194353
100.400490939512
100.414954717355
100.422437627225
100.420557315215
100.419896566954
100.414687390813
100.460242245938
100.458492930828
100.456917096076
100.414208923199
100.422839090892
100.420426534249
100.421293322667
100.418746882496
100.416499365641
100.428068758473
100.449112770031
100.455425171703
100.454504196909
100.408792994065
100.408213678887
100.393785397155
100.39801803075
100.411389045185
100.415158990721
100.408993255488
100.393951644621
100.398169187148
100.402562516646
100.415056233301
100.420128198992
100.432033993583
100.462056953451
100.496582084486
100.495089464974
100.479487900033
100.482625163003
100.483882115034
100.495421898025
100.500701435039
100.486333595437
100.487060714256
100.479690369529
100.509049321355
100.506095410265
100.508194719527
100.502072788217
100.487224511554
100.488115026498
100.501367555122
100.498434722189
100.493939198441
100.4943978797
100.497582733648
100.495881634329
100.496992278163
100.477711204845
100.487156968253
100.463898573816
100.450604709798
100.449353868932
100.45209175745
100.465026020379
100.444485312463
100.449086477051
100.446502463952
100.443832236758
100.439922483437
100.437572140852
100.466724081028
100.466154740121
100.466748814944
100.465737515591
100.459133132649
100.460067014349
100.468647828867
100.467726734954
100.468937746691
100.469353804059
100.46736787363
100.466365904318
100.464850591545
100.46473424072
100.465043720349
100.465819013445
100.466679014058
100.466822187021
100.466223696847
100.466772089418
100.467398811963
100.467474325608
100.467781931523
100.467938503993
100.467535483072
100.466819796679
100.467212277915
100.466289577118
100.465843897088
100.465097923094
100.465131061461
100.465815382679
100.465990756391
100.466226861035
100.466932488319
100.46716896658
100.46786138981
100.467951675122
100.468108893135
100.468221581443
100.468178918151
100.467736054524
100.46672767319
100.466027996393
100.465464656328
100.464749920742
100.464993246234
100.46492885868
100.465189858369
100.464874251249
100.464867994072
100.464689835277
100.464585040751
100.464350194094
100.463212061414
100.462616218088
100.462089077451
100.464202289219
100.465108033239
100.466064037178
100.465148552071
100.46622824325
100.467469830781
100.466676134715
100.469100633449
100.467912706647
100.468590754429
100.468738163645
100.468665949666
100.468807029473
100.46873117143
100.468587221298
100.469223759447
100.469641931777
100.471420138018
100.4695121685
100.470774772788
100.471502411483
100.471502511039
100.47119129102
100.468644873025
100.47019753071
100.468531028563
100.468661489517
100.469303076265
100.47066974814
100.471602539549
100.472122193476
100.47210909081
100.471488277882
100.470546751706
100.468668859256
100.468495196372
100.468687751998
100.469047226311
100.470652084901
100.475126015794
100.472926152614
100.472412082781
100.472381684733
100.469733603864
100.468928672911
100.470840466362
100.470131327735
100.468970443951
100.468500351075
100.469079573673
100.468755688492
100.467925903982
100.468578804059
100.467335292102
100.467983141516
100.466821499678
100.465614168598
100.465914692571
100.466254088413
100.464553008451
100.464632721751
100.46332639429
100.463052166547
100.464952395803
100.462973427363
100.462539302818
100.462352939242
100.463774263231
100.464749711821
100.465149893302
100.466559125947
100.466452583483
100.468027850562
100.467349330463
100.468471774569
100.468664972498
100.471612842993
100.468595185681
100.470202354896
100.47102265766
100.471793066475
100.469602049757
100.469321066157
100.470005711291
100.468674984013
100.469525458951
100.46790131636
100.465237773634
100.459959233018
100.465540287196
100.466017632561
100.465816391132
100.465838465074
100.459570458015
100.461804091398
100.462225265196
100.466914974644
100.464730323035
100.46641104541
100.465677833374
100.463016440039
100.465161356118
100.463007955432
100.460958516086
100.462989652767
100.460404085477
100.459416912655
100.461348686345
100.459332041186
100.458925712816
100.458435437724
100.458881357995
100.458551530544
100.46144608427
100.463905044326
100.461569792405
100.465462399905
100.462024367438
100.462537514565
100.46277200865
100.463542612891
100.464600357618
100.463910213479
100.463703430348
100.464611764104
100.465006668412
100.464834545995
100.464790674101
100.464592626447
100.464620918751
100.464465281411
100.464426149785
100.464702433263
100.465004061941
100.464900977071
100.464908477616
100.464852529737
100.464448322246
100.463767848892
100.463959576093
100.464056083185
100.463150449821
100.460829519934
100.461803336747
100.462380879007
100.46186372637
100.460359856021
100.461516548125
100.463417466057
100.463667447499
100.462140574442
100.459298520745
100.460927785841
100.464661870417
100.463784543314
100.464003823782
100.463038554398
100.461905451425
100.460717145845
100.459545050733
100.463138392654
100.464767611555
100.466362983876
100.467299670385
100.467915113037
100.46823525193
100.467416748219
100.466921895267
100.466762482978
100.466122912932
100.465903632353
100.465017656669
100.465091412191
100.464480786327
100.464749910127
100.465576698375
100.465545196054
100.466022287032
100.465584857418
100.464880157477
100.465288552136
100.465616586228
100.465595416749
100.46606378851
100.466306597511
100.466757862554
100.46745901036
100.467401145948
100.467710761357
100.467636019056
100.467646756642
100.467313996013
100.466389109814
100.465862399451
100.46537911925
100.465732006765
100.465574316127
100.462730361444
100.463998489349
100.46628272647
100.466649161907
100.468565562501
100.467023455279
100.466107250491
100.465734386859
100.465745930693
100.465755835627
100.464992320681
100.464372993143
100.464949505441
100.46575627448
100.46577090266
100.465775012967
100.465936638607
100.466329996949
100.466077341362
100.465602955557
100.466028565206
100.465821655476
100.465904661915
100.466329780027
100.46641261267
100.466890248999
100.467261111271
100.467037445911
100.467331919957
100.467051399258
100.467219961934
100.466870295589
100.466139657721
100.465943497725
100.465317353354
100.465360396397
100.465009101297
100.465339069733
100.464881126256
100.464810286183
100.464842692412
100.464442850752
100.464418292892
100.464332594176
100.463222469256
100.462368421367
100.463277231977
100.463248329013
100.4619496708
100.463658455772
100.461219663668
100.460069968024
100.455013302195
100.450700978376
100.45412576337
100.453826437815
100.453109499613
100.451517789155
100.450998536204
100.453438628412
100.455169021194
100.455285811464
100.457833437247
100.458235920149
100.460621602579
100.459587225238
100.459733735945
100.449395501483
100.450791892192
100.452006560577
100.453334866262
100.455478792537
100.458807150646
100.463749152851
100.459532854573
100.454330378996
100.438915588853
100.423150331172
100.446365332559
100.440733347363
100.436383382257
100.434959510563
100.435738215021
100.435517073673
100.425205962021
100.438584987821
100.451934477443
100.44541522078
100.452777111082
100.44708054347
100.443191489792
100.449850673422
100.443489815872
100.441820867067
100.447398190654
100.440052040206
100.44193978051
100.436895332339
100.44466964903
100.440210265086
100.447148593525
100.448162741264
100.452006522647
100.456589389995
100.46028454307
100.464150145716
100.463625172486
100.463045837341
100.463489078952
100.463978266921
100.462764942832
100.462714606801
100.464233036586
100.463773633693
100.462576088783
100.462107492073
100.461473547201
100.460648635973
100.454048336615
100.442090499861
100.429984086992
100.421441216472
100.414316158692
100.4235624425
100.418835157205
100.422170513869
100.415898724104
100.413364833486
100.411814045566
100.412369335251
100.415680156089
100.415664507715
100.422860008585
100.395184075665
100.383845610478
100.386833079434
100.39364121443
100.413993227816
100.41513098588
100.397729698526
100.382483351421
100.380198581977
100.350010397942
100.351918905045
100.354717544697
100.366217904876
100.356117395822
100.33707891987
100.303661806605
100.286486339754
100.323412216766
100.312145522379
100.310646018709
100.319754448296
100.34987876484
100.357168252971
100.34560194339
100.37254730127
100.393588435211
100.392887646108
100.391058464212
100.390433313026
100.389076846436
100.37966839582
100.403503575339
100.385932151601
100.399158671232
100.395192384559
100.400688515558
100.408521819541
100.420785118082
100.444788673718
100.45065718362
100.458019552958
100.46265996586
100.461091531579
100.45550132123
100.449771054212
100.428263091682
100.410428952227
100.376989182957
100.354339395187
100.340653800985
100.333002308658
100.332434669796
100.350303249054
100.339919140584
100.343670593202
100.332628077852
100.335392049626
100.334504342017
100.334347517187
100.339999934719
100.299102370298
100.288331008086
100.298340766351
100.328568490367
100.372263512915
100.401549128271
100.425092950509
100.443714241365
100.453139622574
100.458382239844
100.460400796849
100.460636669621
100.467656423416
100.5015837637
100.484710889628
100.48096495027
100.480822478394
100.481889209246
100.481936182242
100.486596952394
100.504663679491
100.491927605039
100.481706253006
100.478313845331
100.451205942257
100.434051873683
100.433443061915
100.438181008498
100.454478662455
100.442759128709
100.437426952973
100.432471931507
100.422798847918
100.424034206774
100.434412789441
100.436118734409
100.427351823881
100.429513757576
100.439531914942
100.443541367867
100.445428949167
100.456393029273
100.423430163872
100.420663998649
100.416965328858
100.409482451899
100.41031945649
100.4204812103
100.412378277259
100.411144816175
100.404528867626
100.399167115297
100.406009224698
100.411948673808
100.4596876073
100.46493836842
100.462647948723
100.465686972243
100.463146755759
100.470759783202
100.469830774707
100.472368807894
100.472038314931
100.470789739557
100.469886932355
100.470157932344
100.46964322295
100.471374408996
100.471142009779
100.471654108676
100.471997906471
100.471807919276
100.47029298357
100.470259546328
100.469531322802
100.469047320267
100.468860108653
100.468568886362
100.467882082022
100.467648038332
100.46734967978
100.466773642045
100.468970392506
100.466811505902
100.464296619642
100.462734269799
100.462440338076
100.463193395116
100.464143556174
100.468362683382
100.46580701477
100.464547896943
100.463438211824
100.46500216855
100.46561940526
100.466241101342
100.46589340839
100.465688891541
100.466226019679
100.464920179001
100.465401485131
100.466224105924
100.466797701039
100.466113083649
100.467164355
100.466217778406
100.46634028776
100.466598347294
100.466351567788
100.466170278227
100.465822246368
100.465671579776
100.466101198763
100.465380618295
100.464656362643
100.465288831381
100.465246010503
100.465518554415
100.466067938477
100.46637685847
100.4668449511
100.466857766763
100.467180605267
100.467459449733
100.467758394129
100.468109933474
100.468182685762
100.468486364049
100.468543162422
100.468397465902
100.468370700585
100.468155761223
100.467814408272
100.467507342223
100.467225774431
100.467740357231
100.467213149518
100.466849607324
100.466330500034
100.46579677173
100.465394649143
100.465029850011
100.464408819181
100.464658507531
100.464978908948
100.46573109439
100.466195076628
100.466966888886
100.467259292334
100.466691690628
100.466444622625
100.465834908959
100.465580117125
100.467125807563
100.469388494047
100.47083562458
100.470279496339
100.472156287984
100.471370659429
100.469667478842
100.47042466886
100.467511332619
100.466830375918
100.466964629294
100.467567061236
100.467838528932
100.468123650432
100.468613046302
100.46799610932
100.467662436943
100.468167026837
100.468268333361
100.468301568933
100.467919653379
100.468364289988
100.468504441533
100.468472609218
100.468809773537
100.468504579777
100.468646711806
100.468809833091
100.468845226613
100.469171725704
100.469245909348
100.469273419285
100.469497062237
100.46957147021
100.469926492529
100.469730229457
100.469850052807
100.469393510359
100.470432430109
100.470809390586
100.471211617057
100.470454609631
100.47013411371
100.470176706971
100.469805059731
100.469625510707
100.469719863493
100.469432713694
100.469313173307
100.469099131802
100.469015809091
100.468751325548
100.468817755918
100.468812338617
100.468634832617
100.468668033173
100.468712906545
100.468393186458
100.468284757845
100.468848590748
100.469320984918
100.469210985086
100.470472092159
100.470510304702
100.470658493423
100.470001662833
100.469517052027
100.469607818151
100.470356474221
100.471299386745
100.469676548838
100.469125539684
100.471468324511
100.470827628483
100.472070755274
100.470804690276
100.470668228065
100.470922028988
100.47134749768
100.471299029511
100.471322367303
100.471220666669
100.470519539623
100.470554440365
100.470070377054
100.469856125504
100.469874907951
100.469084616949
100.469121049602
100.46865180158
100.46886116124
100.46856249302
100.469023152483
100.468904780155
100.469034989544
100.469014290376
100.469167882018
100.469071080734
100.469408016512
100.469357848991
100.469653883424
100.469586421713
100.469891114596
100.46983414166
100.469826860058
100.470383536083
100.470815175439
100.470871432031
100.471171107784
100.471592180364
100.471136589384
100.471169207335
100.470888377232
100.470735174974
100.471037811663
100.470998264902
100.470706562751
100.470687833092
100.470937650934
100.471419069163
100.471167171515
100.472266436029
100.471345697763
100.4717352701
100.472318487084
100.472268142902
100.470883810575
100.470727210301
100.469576420623
100.46929248711
100.469061324689
100.468719479796
100.468324572759
100.468479049747
100.468805868716
100.468877844003
100.472482011276
100.468694758914
100.465667364052
100.46398514816
100.463807732611
100.464152196413
100.464126123784
100.463445208478
100.463183257631
100.463144526174
100.463340242031
100.463295228047
100.463061198028
100.462911821301
100.462897310851
100.463159834302
100.462483920224
100.462266996847
100.462330172947
100.462284840915
100.462203522092
100.462493026673
100.46269351264
100.462719434181
100.462149617479
100.462136800159
100.462197580995
100.462479208271
100.463545625149
100.465160072909
100.463759219451
100.464377927213
100.465764176209
100.469348654734
100.469157513715
100.46926043333
100.465718121758
100.464204722344
100.463111372226
100.462526056336
100.463305110076
100.464508495495
100.465929906875
100.467188970772
100.4657326135
100.465121674571
100.465282033049
100.465074976942
100.465480703429
100.465717636839
100.465152254412
100.464479228806
100.464007740415
100.463972017458
100.464036194688
100.463998001554
100.463811237342
100.463788604876
100.463793686608
100.463925980143
100.464699434475
100.464731287154
100.465208386909
100.465949259722
100.466365430308
100.466581035006
100.466552580696
100.465684584827
100.464855977378
100.464269187085
100.46469079785
100.464355242649
100.464490074566
100.46455268627
100.464760772759
100.464633155276
100.464270986107
100.464271017513
100.464092540011
100.464329372441
100.464291454723
100.464241956148
100.464450435984
100.464121641779
100.464139296646
100.464161082368
100.46410022744
100.464131536783
100.464162599629
100.464629537756
100.46499112937
100.464679661475
100.464863443735
100.464954490147
100.465048577226
100.464899869217
100.464719000088
100.464734713366
100.464687979942
100.464616354036
100.464446826539
100.464516380979
100.464826554246
100.465014319779
100.465873745669
100.465287846809
100.465196794387
100.465216689572
100.465363901146
100.465267187241
100.465134207676
100.465095186861
100.464868718694
100.464689268415
100.465033667706
100.465490550816
100.465488939063
100.46541537426
100.465513060478
100.465553986011
100.465417200185
100.465286707756
100.465223462224
100.465284586818
100.465058800854
100.464958122943
100.465018303695
100.465175325727
100.465086773443
100.464926683165
100.464708255904
100.46474182939
100.46512198999
100.465147237139
100.464975436043
100.464522675951
100.464402284401
100.464502021015
100.464317600674
100.46407366556
100.463998538982
100.464379191318
100.464357287632
100.464260085386
100.463798156763
100.463754105431
100.463507984846
100.463715637256
100.463596470579
100.463597654089
100.463643173734
100.463463173202
100.46345441831
100.46347168537
100.463426534828
100.463700989123
100.464014077375
100.463760961421
100.463987697188
100.464406917314
100.465378317545
100.465706579691
100.467221308426
100.467475243114
100.468314498963
100.467887727091
100.46790384111
100.467108334708
100.466371269799
100.465919253426
100.465623268014
100.465794985358
100.465589934883
100.465722093124
100.465674359272
100.465756739994
100.465588657545
100.465468707985
100.465427767643
100.465462550529
100.465269664903
100.465169220335
100.465063443207
100.465311680951
100.46525808848
100.465247595529
100.46539546707
100.465335591285
100.465168168095
100.465389425358
100.465380382461
100.465501844881
100.465419977703
100.46525566997
100.464862072453
100.464785746489
100.464814913197
100.46469211666
100.4642676165
100.464011296645
100.463737733992
100.463792464706
100.46391898557
100.463652684066
100.464516016546
100.464415159833
100.465388905682
100.466501184952
100.467964259704
100.467795889294
100.467656359847
100.467621172364
100.468048179189
100.469280963184
100.470365474953
100.476719991657
100.473501423001
100.490673002873
100.487623488526
100.453296544351
100.419507741842
100.380419020622
100.358850049974
100.373589070681
100.370905120934
100.369043483766
100.369437722716
100.370338365476
100.371243318056
100.372353006474
100.373758440076
100.375300034128
100.376719360596
100.377883011587
100.378749150201
100.379308206896
100.378266898975
100.377016788614
100.375552241801
100.373933896299
100.372279176547
100.3706969716
100.369307734972
100.368156741412
100.367245042351
100.36651190153
100.365914129472
100.365475573621
100.365306659241
100.365501173538
100.366170984711
100.36750225835
100.369344102525
100.371211352129
100.372392674182
100.372609968999
100.372526476816
100.372602716337
100.372656951151
100.372659033258
100.372699073565
100.372735375895
100.372788044292
100.372827986432
100.373096106444
100.373205027223
100.373274668331
100.373137812854
100.373030588026
100.373018320097
100.372829012098
100.372737225452
100.372697174428
100.372630328599
100.37266148075
100.372601814883
100.372561214562
100.372559472269
100.372527602067
100.372510293321
100.372434122935
100.372401456123
100.372455173527
100.372470038243
100.372487679934
100.372517452403
100.372555383486
100.37251236293
100.37270128662
100.372789611279
100.373016772527
100.372936907697
100.372870109217
100.372646027118
100.372636196318
100.372590388251
100.372754674121
100.372629055859
100.372568288812
100.372420517402
100.372441568721
100.372408786921
100.372390078702
100.372347814503
100.372371015058
100.37231936717
100.372243765882
100.372188290403
100.372072397668
100.372215029075
100.372287433882
100.37228485071
100.372319618245
100.372306401675
100.372298890711
100.37233149404
100.37237924999
100.372380007919
100.372502899647
100.372515055328
100.372518930767
100.372486956393
100.372298213026
100.372407229764
100.372283110392
100.372399318421
100.3723997466
100.372304825745
100.372313732015
100.372293970049
100.372277251079
100.372255844302
100.37227162486
100.372225549425
100.372224267807
100.372140941471
100.37189432915
100.372154995903
100.372220609185
100.372198731749
100.372225345529
100.372214066966
100.372229288005
100.372236876256
100.372235409767
100.372196290497
100.372243812731
100.372179206913
100.372211439021
100.372258404885
100.372233812773