/*--------------------------------*- C++ -*----------------------------------*\
| =========                 |                                                 |
| \\      /  F ield         | OpenFOAM: The Open Source CFD Toolbox           |
|  \\    /   O peration     | Version:  v1612+                                |
|   \\  /    A nd           | Web:      www.OpenFOAM.com                      |
|    \\/     M anipulation  |                                                 |
\*---------------------------------------------------------------------------*/
FoamFile
{
    version     2.0;
    format      ascii;
    class       volScalarField;
    location    "0.8";
    object      p;
}
// * * * * * * * * * * * * * * * * * * * * * * * * * * * * * * * * * * * * * //

dimensions      [0 2 -2 0 0 0 0];

internalField   nonuniform List<scalar> 
81489
(
99.9990871930115
100.00391139845
99.9971221518761
100.001390650464
100.006705783813
100.003379821997
100.003002207571
100.003054337893
100.003224465894
100.002840405495
100.003445549803
100.006531777561
100.010376090927
100.009210575301
100.007412650964
100.008417130018
100.005564603894
100.003181167565
100.003199201531
100.005578054165
100.008390782285
100.007368333969
100.009175867432
100.010330012619
100.006509113484
100.00341417293
100.002808631732
100.003198511925
100.003026131009
100.002970073866
100.003345341601
100.006684766743
100.010495850903
100.009343209776
100.007404767964
100.008416745114
100.005605103356
100.003245193334
100.003228425435
100.005592056977
100.008440543953
100.007452174188
100.009382989193
100.010535523644
100.003693845395
100.00298198276
99.9987048757121
99.9992160414742
100.000572876324
100.000991909609
100.0010195833
100.000595395195
99.9991967261893
99.9986694272222
100.002951502652
100.003664864944
100.001387493946
100.000320799003
100.001021193103
100.0012591432
100.001212643632
100.000886508957
100.000547617093
100.001522931191
100.003655428961
100.002928988323
99.9986449452333
99.9991554743894
100.000551932425
100.000976842244
100.000947081542
100.000522027717
99.9991786129712
99.9986832841044
100.002960981614
100.003682288792
100.001526424012
100.000562044824
100.000903852904
100.00123119952
100.001278269888
100.001037603453
100.0003370465
99.9970988929914
99.9992311127526
99.9991398618929
99.9878358569852
99.9902305699754
99.990364265353
100.000673376738
99.995294414595
99.9933795679051
99.9958001336814
99.997956442182
99.9979865415092
99.9958027659303
99.9933301236557
99.9952533737262
100.000642907885
100.000652222814
99.9971255018609
99.9970870000075
99.9992245780502
99.9980693521517
99.9980457674498
99.9992739414011
99.9971701010944
99.9970115902082
100.00060400109
100.000652352961
99.9952402066735
99.9932829908907
99.9957541317608
99.997940945231
99.997913002
99.9957422421319
99.9933274487371
99.9952792105751
100.000682169096
100.000639279977
99.9970107017489
99.9971836369732
99.9992817247889
99.9980641858136
99.9980886180088
99.9951506786294
99.9951022737867
99.9878793586677
99.9580794637899
99.9579994946088
99.9524011107446
99.9533737895343
99.9585388820501
99.9889207795484
99.995950520375
99.9952850724743
99.9952808452343
99.9958763055565
99.9985079063495
99.990362472362
99.9901918401008
100.00392221877
99.9991320220468
99.9951227631659
99.9950767872542
99.9988550522267
100.003502862458
99.9901823652153
99.99036567283
99.9888633228081
99.9889014211708
99.9903709153537
99.9902215009655
99.9525356976339
99.952314310537
99.9538218285257
99.9538095627261
99.9522950050791
99.9528217102398
99.9536467737031
99.9536672303306
99.9585877048378
99.9888846274584
99.982983671732
99.9662743978476
99.9598432529758
99.9596824449596
99.9572265071991
99.9582801711921
99.952837592463
99.9534724742196
99.9524537770674
99.9580233185327
99.9878067202717
99.9878501611384
99.9581039364979
99.952585899888
99.9535499531966
99.9586287350049
99.9585803935182
99.953453727883
99.9528398630662
99.9582966834377
99.9581665736795
99.9574417326967
99.9574503903036
99.9581921007465
99.9583085350968
99.9572337017364
99.9585524560742
99.9585458253386
99.9591705476024
99.9591314052461
99.9581783758486
99.9523114726204
99.9538310413374
99.9538455303057
99.9523340795357
99.9528556688055
99.9537016692565
99.9536805296543
99.9572456475769
99.9585575486203
99.959190972808
99.9591396562644
99.9586301720595
99.9586323499655
99.9591533568946
99.9591904255057
99.9571060481447
99.9569177484327
99.9569147263249
99.957094664319
99.9570383439156
99.9569064257777
99.9586140024683
99.9574474976099
99.9574386044097
99.9581540184279
99.9582668436809
99.9572387869444
99.9585495358534
99.9569224619777
99.9569285068476
99.9571216345755
99.9570673661157
99.9569405839226
99.9569357543251
99.9570640855649
99.9547011853851
99.9547243409663
99.9546424631435
99.9546356041556
99.9547019258492
99.9546658857819
99.9546272840075
99.9546308915815
99.9569097292064
99.9586108053361
99.9591200093359
99.959163280856
99.9570962872516
99.9547086221437
99.9546487525398
99.9546587820563
99.9547402600136
99.9547164858747
99.9546806459433
99.9546721936816
99.9527512373694
99.9527693145679
99.9527708077012
99.9526951443228
99.9526830370812
99.9527307896268
99.9527171622391
99.952676653802
99.952679416518
99.95271513643
99.954670421644
99.9570419857652
99.9576116978676
99.9549761353928
99.9529976137807
99.9527395577619
99.9526995513234
99.9527190051004
99.9527942898928
99.9527958462965
99.9527601548446
99.9510116194322
99.9510038586115
99.9510043347068
99.9509886196232
99.9509225083131
99.9509047178152
99.9509187059655
99.9509100459873
99.950875679548
99.9508818847267
99.950910308532
99.950933702169
99.9509257331923
99.9509595857048
99.9510234134097
99.9510375862323
99.9491399857241
99.9491226778938
99.9491098740411
99.949093072517
99.9490700151792
99.9489942454397
99.9489694958877
99.9489504247422
99.9489323207453
99.9488990470978
99.9489128927628
99.9489441426632
99.9489758207906
99.9489948543968
99.9490577191496
99.9491180946301
99.946864259632
99.946869145315
99.9468219523282
99.9467992061151
99.9467755472737
99.9467419124598
99.9466198633043
99.9465883325614
99.9465765947066
99.9465269999802
99.9464512310236
99.9464780354472
99.9465430410576
99.9465791146093
99.94661140773
99.9467383804298
99.9435536013905
99.9437336856139
99.9437283815806
99.9436482713017
99.9435767063701
99.9435401947357
99.9434958220407
99.9433423619328
99.943270423493
99.943255269601
99.9431530608766
99.9430211218131
99.9430614824795
99.9431763639469
99.9432069871373
99.9432854308966
99.9382154010165
99.9386479301282
99.9385958802663
99.9385183088222
99.9386259310009
99.9385668996188
99.9383634295492
99.9382423536097
99.9383505920316
99.9381722193383
99.9378428922754
99.9376302974785
99.9377948873747
99.937838979798
99.9376951068888
99.9377569314997
99.9230469757885
99.9248238571354
99.9251527711126
99.9238411250058
99.9238243447211
99.9256736489642
99.9256212126567
99.9237252982005
99.9235268312532
99.9247878586972
99.924320885199
99.9226222008047
99.9223199343444
99.9237796375837
99.9238273244929
99.922618223264
99.9359851128399
99.9371662547952
99.9343956481282
99.9347381377217
99.9383550733184
99.9381937771212
99.9347937851963
99.9347252543015
99.9379303467227
99.9380190634566
99.9343180501267
99.9336012729617
99.9363280812397
99.9354674103593
99.9320403660737
99.9322781688902
99.9902277214242
100.043842738777
100.001281648327
100.002262795934
100.045863150299
99.9927462516265
99.9924902150639
100.046730674641
100.00373253893
100.004560204476
100.048413076361
100.080780500734
100.080299972383
100.047801332684
99.9942353309813
99.9943516826107
100.118460281486
100.218305693122
100.176015182097
100.175975117624
100.148484887845
100.141801629612
100.140198792106
100.003132592766
100.0459220515
100.076726551338
99.9918894883412
99.9909858134235
100.044371651895
100.000873254351
100.000489158737
100.043348521639
99.9900312425411
100.075066014203
100.075266736824
100.169019038906
100.1434756895
100.13858446123
100.138031113409
100.144213525862
100.172456159229
100.173027948662
100.146293248067
100.141381618628
100.142468976861
100.148889046221
100.241136285701
100.280761219945
100.259327333865
100.259092875842
100.280135534976
100.269169711598
100.240325993445
100.335343066877
100.370235752943
100.343336392919
100.333561221042
100.333479081872
100.341020630507
100.277165654469
100.237907632548
100.269026055735
100.334139402185
100.368300546235
100.389238934533
100.395637887606
100.397551851221
100.401490490277
100.402661704068
100.402071243518
100.401403662616
100.400962152882
100.400683455089
100.400600576692
100.400732634224
100.40098066857
100.40128204549
100.401575953654
100.401887909545
100.402304107501
100.40309716769
100.404684089083
100.408290473473
100.414941397756
100.428294171061
100.451289615657
100.492108657758
100.490923245086
100.427510337523
100.371443006652
100.314882750095
100.282889990962
100.303554011156
100.302851661423
100.300620979665
100.300918526668
100.30197149218
100.303042245512
100.304274809837
100.305871935709
100.307785132443
100.309807627629
100.311667447212
100.313092702245
100.313839622666
100.31262518534
100.311140343345
100.309469629332
100.30773900732
100.306009113213
100.304284603035
100.302611293137
100.301083783677
100.299807994532
100.298804059972
100.298050875321
100.297527772806
100.297176917965
100.296949679438
100.296792508269
100.296653006452
100.296527059244
100.296442515564
100.29645690268
100.296653586986
100.297235547247
100.298794567348
100.300540067301
100.301477575168
100.30176295184
100.301771738965
100.301858853662
100.301859143243
100.302004806186
100.301946604386
100.301977512368
100.301926058242
100.301829469821
100.301597586413
100.301328240318
100.301327710581
100.301442331392
100.301777465825
100.301723485128
100.301613632651
100.301797458963
100.301888518441
100.301924487142
100.30191669342
100.301947028172
100.301849439166
100.301825769334
100.301772203055
100.301739175654
100.301505453573
100.301143443648
100.301626542483
100.301748153017
100.301778687053
100.301813223365
100.301835086527
100.301917634288
100.301886311536
100.301888056292
100.301853830193
100.30177226904
100.301869139441
100.301750303551
100.301905383105
100.302093209029
100.302066338
100.301979593996
100.301859535806
100.30186766791
100.301872657506
100.301890796695
100.301822320277
100.301799830642
100.301770169408
100.301755572062
100.301571132729
100.301426049117
100.301705683247
100.301772596877
100.30178578525
100.301798425808
100.301816518872
100.301878724612
100.301904725588
100.301909139122
100.301923411603
100.301903289915
100.302113328181
100.302282228085
100.302335882066
100.302084528453
100.301870014483
100.302132667976
100.302401923922
100.302342330794
100.302486837155
100.302441113702
100.302234453979
100.301963673172
100.301975281735
100.30191855957
100.301830504645
100.301793978161
100.301793661433
100.301791604122
100.301718599703
100.301798206638
100.301438109937
100.300930016561
100.301574858345
100.301760690039
100.301743388382
100.301801032259
100.301876830036
100.301829186789
100.301911832157
100.301969479992
100.301979215669
100.301990585003
100.302047873744
100.302353563445
100.302561547805
100.302600927653
100.302503671862
100.302624605254
100.302798477235
100.302719543924
100.302652203829
100.302447064772
100.302149423865
100.302052065961
100.302032953392
100.301952283465
100.301896215864
100.301856577797
100.301874758694
100.301896035947
100.301787635607
100.301840010971
100.301564021913
100.301415152578
100.301773485124
100.301891405912
100.301854036494
100.301948434407
100.301926897191
100.301983185859
100.302013684654
100.302098132698
100.302181700154
100.302303978712
100.302577536047
100.30283176928
100.302754908683
100.302835124747
100.302630721854
100.302316393123
100.302328961652
100.3026809066
100.302944690961
100.303011706628
100.302880545011
100.302659041413
100.302931215607
100.303009734526
100.303100329712
100.303130278484
100.303174800082
100.303100803325
100.303004016264
100.30275140483
100.302374020176
100.302289461969
100.30219267298
100.30210400135
100.302053225891
100.302070740628
100.302004303563
100.301927539995
100.301958277345
100.301722539973
100.301785918773
100.301951800353
100.302016159049
100.302011650567
100.302055670867
100.302175763889
100.302140247655
100.302225861731
100.302229726994
100.302250255827
100.302322659055
100.30244761857
100.302805549782
100.303054361573
100.303119922305
100.303078864594
100.303018732863
100.302839640128
100.302868533801
100.302603604564
100.3024415128
100.302340541702
100.302290763812
100.302236208473
100.302166160024
100.302192449206
100.30217833763
100.302157038834
100.302077203492
100.301866471615
100.302093719729
100.302091724002
100.302126392305
100.302234542877
100.302232191973
100.30224290319
100.302333273442
100.30241424856
100.302461878847
100.302569904098
100.302889195169
100.303064591618
100.303064011851
100.302958718872
100.302727955511
100.302964045328
100.302977992062
100.303119317152
100.303128631524
100.303041591661
100.302901876443
100.302660745709
100.302559297876
100.302434871564
100.302480379859
100.302419436408
100.302343774344
100.302359612993
100.302298838481
100.30221558456
100.302274193857
100.302296554043
100.301944572639
100.302109606369
100.30222643501
100.302103902964
100.302324142203
100.302285558061
100.302411940756
100.302369968894
100.302451801036
100.30251069338
100.302581864491
100.302706755198
100.302735877461
100.302941577702
100.30311078461
100.303060851722
100.303083757362
100.302938509875
100.302960470508
100.303105528731
100.303186305695
100.303117605957
100.303247853209
100.303299891721
100.303303006164
100.303188032371
100.303050171408
100.302829821439
100.302738326334
100.302666686001
100.302616043619
100.302546215865
100.302487671838
100.302577863672
100.302382750456
100.302413422389
100.302334067088
100.302366190285
100.302056316575
100.30142427793
100.300610402243
100.301649690606
100.301030726856
100.30031907457
100.299544973113
100.298692615617
100.30025331614
100.299610485758
100.297901299713
100.296952127331
100.296524837167
100.296396961039
100.296434689852
100.296531173168
100.296668835784
100.296830247676
100.297058920003
100.297394771209
100.297882331728
100.298580077415
100.299527911962
100.300762598061
100.302257107503
100.303901213855
100.30556748898
100.307209085862
100.308837680858
100.3104073056
100.311792909707
100.31292918838
100.313735214724
100.314692078441
100.315229357932
100.314361958776
100.313113374649
100.31157710462
100.309848200882
100.308056105293
100.306274054246
100.304518511171
100.302832360645
100.301292501214
100.299992963778
100.298952824313
100.298160612394
100.297608428671
100.297242678686
100.297013018357
100.296860075215
100.296728807684
100.296605777703
100.296515475154
100.296515746654
100.296646614321
100.296951510434
100.298332115502
100.300028615149
100.301355308278
100.301867112547
100.301937906156
100.301994844203
100.302000355832
100.302085512212
100.301990768405
100.302071461995
100.301985707578
100.301881048838
100.30165208607
100.301338203431
100.301364258003
100.300887493124
100.300274619964
100.299570656755
100.299671694712
100.299977058422
100.300342943807
100.300837064298
100.301329060802
100.301213412223
100.300859998556
100.300509723723
100.300316498216
100.300875803414
100.300978374922
100.301287420203
100.301671224667
100.30179516689
100.302072830519
100.301833825507
100.301570269481
100.301146755835
100.300574205911
100.299599504423
100.300047522528
100.300795954021
100.300857446937
100.301384815423
100.301542797789
100.301039814376
100.301398242849
100.301653618728
100.302134791223
100.302093614643
100.301939999277
100.302335723614
100.302461943858
100.302649722791
100.302287639405
100.30190642358
100.301454038939
100.300634661439
100.301024597788
100.3015462625
100.301696794718
100.302244679992
100.302496824553
100.301927162851
100.302105579102
100.302475421086
100.302599812528
100.302935164884
100.302835023267
100.3025093366
100.302649439719
100.302602847944
100.302415760549
100.302108073032
100.302062255189
100.302033817643
100.301980946128
100.301862735466
100.301787104891
100.301696354308
100.30168317575
100.301713277088
100.301735658987
100.301699972817
100.301694431988
100.301694944393
100.301698141377
100.301732102448
100.301802747853
100.301815720833
100.301959389085
100.301871481937
100.302068576027
100.301980072127
100.302046551043
100.301971838095
100.301875195413
100.301640842436
100.301550361039
100.301808987851
100.301979679959
100.302034765107
100.302038267066
100.302039799889
100.30204385997
100.301993192662
100.301882804371
100.301639359136
100.301331660306
100.300841550743
100.300291497623
100.299467050722
100.299480518119
100.298463170083
100.297222734418
100.295366086537
100.295788102303
100.297332263268
100.297428079265
100.298515531619
100.298505619008
100.297461858378
100.298190249214
100.298731612515
100.299275391977
100.297883169295
100.296843428483
100.295147181272
100.296536047039
100.297063338986
100.297720123867
100.29828199994
100.298770443323
100.299616499135
100.299805056572
100.29948763975
100.298749067821
100.298099336808
100.29781511622
100.298564726979
100.298041327846
100.299075639391
100.301098929046
100.301513323465
100.301509398274
100.301507590424
100.301427869298
100.301330681685
100.301249143595
100.301380638372
100.30119740168
100.301144578513
100.301297787134
100.301890787326
100.301981887822
100.302034124895
100.302057053283
100.30201758601
100.302090745978
100.302090561428
100.302039782117
100.301989035981
100.301879996371
100.301617317608
100.301349162425
100.300817300898
100.300287186379
100.299482819673
100.298361925204
100.297223282764
100.295234123799
100.2952092113
100.292929729874
100.289774002983
100.290175312956
100.291019302225
100.292267363883
100.293334734846
100.294259605052
100.292075503324
100.290073120955
100.291684790257
100.293137882692
100.293979105597
100.295194332814
100.295403835354
100.294695698923
100.293373868548
100.292711276403
100.294236036315
100.295607127835
100.296140353763
100.295877741484
100.297225477558
100.298507528672
100.300925859792
100.301407661739
100.301201898001
100.300362798845
100.3010326572
100.300879911772
100.299959979506
100.300800194218
100.300792444772
100.301139524517
100.301294946955
100.301892906275
100.301986236412
100.302038068408
100.302057955132
100.302014830473
100.302078957443
100.30198870574
100.302065517983
100.301978012823
100.301881694768
100.301619803053
100.301357421319
100.300851662778
100.300255296506
100.299482811238
100.298402493447
100.29719812294
100.295338741771
100.29307242286
100.29009215019
100.289771377275
100.285982591631
100.281231872105
100.259281912475
100.258806546713
100.262791122951
100.280152437029
100.282299994945
100.281177116892
100.285960596089
100.286513445359
100.287525919214
100.281557859424
100.285501038515
100.28797676892
100.284408523748
100.280018754996
100.27217420722
100.279362761005
100.284477831082
100.284470320881
100.287160646836
100.289173821204
100.287167186913
100.290001090497
100.291386733426
100.292739539694
100.293949893991
100.293938486968
100.29243247715
100.291213017839
100.29074056044
100.292227391096
100.293503604568
100.294085556747
100.294774320043
100.293067543863
100.294142895059
100.293759125614
100.293755806605
100.293687562799
100.293854004069
100.293533115629
100.29183880305
100.293022794151
100.291777389093
100.295296155299
100.292900812019
100.293006704228
100.293226086449
100.293186880763
100.292788485233
100.293535164958
100.293383905315
100.292938989242
100.291851135389
100.291066732446
100.292850033382
100.291280351738
100.291597756009
100.292388553638
100.292849388133
100.291656322839
100.290974294116
100.291137000684
100.298469712102
100.297641543972
100.297342970227
100.297556539619
100.29902681138
100.300723456554
100.299383732501
100.299097428394
100.299464835297
100.296280548403
100.297682213059
100.296286755307
100.294169685984
100.293656155825
100.295516740164
100.296966019737
100.296030984056
100.295952316701
100.294740453507
100.293959493869
100.294490424194
100.294393715394
100.297862344937
100.299545001749
100.301034424137
100.301570062466
100.301737317521
100.301711371636
100.301508738978
100.301445648775
100.301302219719
100.301179667209
100.300838328122
100.300156899691
100.299669728007
100.299627454219
100.299993181654
100.301350260396
100.301874081305
100.301947160011
100.302001121044
100.302002293661
100.302081012981
100.302065251674
100.301970475009
100.302034817257
100.301959213965
100.301868249367
100.301633747324
100.301354770692
100.300897440831
100.30026371748
100.299518169751
100.29853743484
100.297317019757
100.295646061003
100.293486199979
100.290885793039
100.287429287119
100.281389526161
100.280091902756
100.263361200075
100.244674397659
100.166776240234
100.182445382138
100.200798225382
100.205181445506
100.201903434894
100.196998195533
100.206977075314
100.203504776361
100.197886737659
100.209079720354
100.205633158932
100.19856558866
100.208397107963
100.205146582197
100.197896375535
100.207259099059
100.204027658408
100.196884506253
100.205946075587
100.202749844711
100.195877697472
100.20389723634
100.201853534075
100.202321018969
100.20173435436
100.200473331832
100.20046971512
100.200691618088
100.200211279705
100.200260946034
100.200624721458
100.200145912775
100.199841965348
100.200354455114
100.200285594549
100.200008235208
100.200081492519
100.200269340945
100.200448133681
100.200902139701
100.200580622698
100.200262485971
100.199996642533
100.200563729855
100.200412247223
100.200089880838
100.199433916245
100.199371578849
100.199975410046
100.200354630122
100.200532026927
100.199977241966
100.200252815641
100.200576246921
100.200901674318
100.200439385115
100.200259454482
100.200078995109
100.200019853899
100.200288099077
100.200357519055
100.199837465312
100.200139869767
100.200619998865
100.200253680113
100.200225170349
100.200645581028
100.200439258728
100.200460456725
100.201737498952
100.202329778897
100.201865766617
100.203920924636
100.202993878695
100.204082804293
100.202534714658
100.201785828393
100.203342413494
100.203097291778
100.201711204475
100.201287910493
100.201523290474
100.199262805435
100.200130032175
100.200404818709
100.200469758572
100.200525721557
100.20027203603
100.19994384548
100.200416388907
100.199764728275
100.199692059539
100.200781801799
100.199745770177
100.20133465651
100.200835079364
100.20083763418
100.200557843269
100.200596581071
100.200440337219
100.200420220117
100.200481483908
100.200956685271
100.200287490854
100.200183175334
100.200151124291
100.200311340233
100.200840595885
100.200376990374
100.200401388252
100.200451509339
100.200558673273
100.20014827472
100.200310707279
100.200794075526
100.201525094083
100.200066543818
100.200102759439
100.199932102618
100.199949935796
100.200139697782
100.200078082952
100.201532295486
100.200801760695
100.20032409464
100.200158500348
100.200559998561
100.200739358074
100.200909748241
100.200905957729
100.200738184846
100.200604480105
100.200647541968
100.200653034369
100.200608955676
100.2007077572
100.200382650708
100.200406315396
100.200454964733
100.200967619718
100.200117326705
100.200351780682
100.201809391235
100.20131531148
100.201541661666
100.20115070191
100.202272954534
100.201622906691
100.200864518357
100.201235193751
100.201495511675
100.201508643238
100.201217336233
100.200851465591
100.201625007659
100.202291840326
100.201154613376
100.201542751534
100.201313257429
100.201810408265
100.200874414075
100.202619860412
100.201920689546
100.201822193289
100.200775303262
100.200696354608
100.200040694943
100.201163404043
100.199803710226
100.200844193969
100.201442271968
100.200413512597
100.201652486901
100.201227532573
100.203062190985
100.203967193971
100.200984896197
100.195889537395
100.202773558516
100.20599496479
100.196903887586
100.204070594388
100.207317918996
100.197927217857
100.205210651604
100.208478400843
100.198597844668
100.205707691032
100.209225931428
100.198026307173
100.203656194277
100.206994577335
100.197254968191
100.202519974406
100.202630604147
100.200150109906
100.197449700089
100.197361187204
100.202237695039
100.199987638246
100.197168945602
100.19402898106
100.198709726345
100.198795610262
100.194155215102
100.186424522911
100.186082434716
100.164533875738
100.237446899416
100.236733360289
100.165319641847
100.167408930731
100.182787638166
100.200955617153
100.205290120211
100.194434720743
100.189966239564
100.195102274178
100.194045282643
100.199556698343
100.206266062078
100.202443111709
100.2029030575
100.206225652557
100.203142332778
100.202800542296
100.204907971319
100.202252864149
100.201904156938
100.20326093187
100.201138563465
100.20102847061
100.201671392015
100.199962339858
100.203738610353
100.202821931301
100.201148082188
100.201694857447
100.202964253551
100.201663510721
100.201224173047
100.200487439671
100.202643496196
100.202555813947
100.20028304627
100.20425037146
100.204475799854
100.201873802226
100.20504389983
100.205824046644
100.203086098562
100.205792088824
100.206175649649
100.203358698458
100.202659603176
100.190545510575
100.179336117906
100.179588413254
100.18946451001
100.186244715611
100.184608319171
100.189439100487
100.17606892843
100.183487197602
100.175751920733
100.175532649375
100.179270950826
100.228633987353
100.25488654922
100.231330368607
100.160491076545
100.159563622112
100.185432910119
100.152682035575
100.13882759451
100.207801603743
100.248379642455
100.270661506056
100.27942870029
100.285102262425
100.287321423862
100.287220604841
100.282662733549
100.27531969943
100.262088650502
100.269284313135
100.277194157462
100.284291536676
100.287882374952
100.291015714176
100.293633135381
100.29401524754
100.296681302863
100.298173471379
100.29720529294
100.296598946819
100.296549626261
100.297104812763
100.300089526385
100.300482796836
100.301378173888
100.301813687469
100.30182024437
100.30196578947
100.301870623015
100.301853762588
100.30199843514
100.301933458278
100.301961582688
100.301905912172
100.301806872188
100.301593715516
100.301318617619
100.300885768271
100.300333201017
100.299665825429
100.298718743561
100.297701014611
100.296216167713
100.294310287959
100.292120933274
100.289298886972
100.285423243292
100.281097384306
100.274745469019
100.254739993741
100.227971187646
100.179291329105
100.175954406241
100.17572326176
100.183550928039
100.194518470994
100.189496519767
100.194027131571
100.193873951247
100.199637013778
100.20624392178
100.202336528768
100.202859209228
100.206225396755
100.203137402514
100.202790217445
100.204912207642
100.202247971216
100.201907422963
100.203280896696
100.201134137563
100.201033775305
100.201673943103
100.199951112886
100.201796741216
100.203955359318
100.203083251377
100.201710191332
100.201278486406
100.201542290826
100.201788543972
100.203338244273
100.202980592722
100.20408839377
100.202537627498
100.202163810411
100.202834356467
100.20139731205
100.200966976692
100.202145871392
100.203737465677
100.202813431697
100.201150596814
100.20165961614
100.200416153294
100.201448611802
100.200851722758
100.199807837525
100.201170793703
100.200047820985
100.200698070769
100.200777891295
100.201838051553
100.201945667603
100.202638156967
100.200886322834
100.200221935815
100.200869368792
100.20020451119
100.200774667343
100.20039168439
100.200823076595
100.201501202704
100.201165752694
100.20043365953
100.200574111234
100.202981458727
100.205000176121
100.20267940402
100.201857397243
100.201983933944
100.202422506928
100.202108605888
100.202597972538
100.202588544922
100.202087439521
100.202415446754
100.201976228767
100.202666450968
100.205021785075
100.202998662452
100.202993019682
100.203871299302
100.202920154292
100.20203077189
100.201946198868
100.202306763531
100.201309623595
100.200560529421
100.201941561274
100.201489114628
100.200159200164
100.202650505014
100.202923616904
100.202132253879
100.202138922645
100.202862740278
100.204111292251
100.20357118872
100.202787015854
100.203624298969
100.205804280323
100.205210373384
100.202717026597
100.203402472363
100.207409641691
100.207456759811
100.201111344085
100.19219463586
100.184818632
100.178216581442
100.182192080181
100.182927063904
100.187530360556
100.18951746353
100.184944924338
100.173630682205
100.174294470718
100.173982061527
100.170611842109
100.160799849796
100.161677130293
100.178791186807
100.174978631537
100.178419163274
100.19567066028
100.199547530363
100.212142143738
100.23195572623
100.218404754891
100.223530619158
100.241972975009
100.260371910038
100.243859099845
100.265077640385
100.276190100652
100.281240471852
100.275080750871
100.274228276439
100.281724857328
100.287231438292
100.290664859936
100.293498485721
100.293658014821
100.293053678819
100.292554626919
100.298166839626
100.298617169436
100.298455632697
100.296308222405
100.297127429341
100.298687308869
100.297096904773
100.298560219777
100.299011455606
100.300499237296
100.300725091296
100.300505593663
100.30122003172
100.298686359625
100.299633603398
100.299556569659
100.298864468937
100.299445202144
100.298776806715
100.298802234156
100.298687384703
100.298700424899
100.29878916335
100.299138768093
100.299166805065
100.29938563101
100.299588424417
100.299486018797
100.298999749717
100.298457547954
100.298324762554
100.29865559814
100.298814762906
100.298919809988
100.298821006546
100.298834194486
100.298888581952
100.298795394403
100.298808143219
100.298650773173
100.298568848166
100.297895322797
100.29814450862
100.298331233118
100.298675607295
100.299002718651
100.299034583405
100.298746149658
100.298505470698
100.298785864146
100.29904347962
100.298982149196
100.29872989076
100.299136356967
100.298854275859
100.298716877353
100.29952778083
100.300156820802
100.299687971283
100.299716493723
100.299323794254
100.298870388765
100.298656597261
100.29931804696
100.299895404996
100.299858046927
100.299333196676
100.29962023277
100.30004916526
100.299998021981
100.299876115324
100.299375037378
100.299447175379
100.299998920054
100.300042776367
100.300211692