/*--------------------------------*- C++ -*----------------------------------*\
| =========                 |                                                 |
| \\      /  F ield         | OpenFOAM: The Open Source CFD Toolbox           |
|  \\    /   O peration     | Version:  v1612+                                |
|   \\  /    A nd           | Web:      www.OpenFOAM.com                      |
|    \\/     M anipulation  |                                                 |
\*---------------------------------------------------------------------------*/
FoamFile
{
    version     2.0;
    format      ascii;
    class       volScalarField;
    location    "0.8";
    object      p;
}
// * * * * * * * * * * * * * * * * * * * * * * * * * * * * * * * * * * * * * //

dimensions      [0 2 -2 0 0 0 0];

internalField   nonuniform List<scalar> 
80683
(
100.068768214742
100.070737733434
100.067577029529
100.071903242351
100.07892959003
100.079065940686
100.077119100489
100.077669677205
100.07765471339
100.078034633638
100.078532054414
100.078300872401
100.080025845013
100.079641169142
100.082181785606
100.082183485233
100.07875476345
100.073940376141
100.072854309187
100.072805688145
100.073809442792
100.073665290315
100.072882033614
100.074321920423
100.08076888119
100.080818540885
100.075104435277
100.073298035222
100.073192531716
100.072479557816
100.072347710057
100.073333126245
100.073283474689
100.075033634302
100.080582235067
100.080412697541
100.074215327782
100.072834077586
100.073566884347
100.073520593707
100.072638695025
100.072688595213
100.073812205718
100.078551340075
100.081822964401
100.08167419908
100.074731709443
100.074217320107
100.072023256676
100.071505033753
100.071431650201
100.071060726324
100.070525898782
100.069389750629
100.070481037397
100.071631997401
100.071794380988
100.070958548059
100.069924543496
100.068772912624
100.06840124293
100.06899157324
100.068917423239
100.068241685896
100.068795206254
100.069925520768
100.070902294646
100.071884352315
100.071857081348
100.070666571159
100.069567908307
100.070744433877
100.071171010579
100.071501322488
100.071504628255
100.07200590078
100.07444338568
100.075151379842
100.072545345653
100.075701079582
100.078818404554
100.08047089789
100.078313403951
100.078062644941
100.079226173377
100.077220549599
100.074741241975
100.070545911944
100.075847492081
100.063945583717
100.051918696267
100.057636079832
100.0587544785
100.070942139709
100.066841723572
100.068056728942
100.070211486158
100.068215452709
100.066801021423
100.066287596919
100.068861257233
100.070361091512
100.066296823015
100.065356423118
100.067692693626
100.064899011047
100.063780238829
100.06481030207
100.064814758879
100.063831533091
100.064914440087
100.067644738912
100.065316232038
100.066115575084
100.070599526714
100.06938867972
100.066623974236
100.066989927837
100.068318945199
100.070275737234
100.06801027999
100.066717250343
100.071265380209
100.071299110205
100.068301247792
100.07184126999
100.078076717872
100.083475087988
100.076841578589
100.076748388304
100.081029365008
100.09632528096
100.06493928235
100.065481075702
100.049359181693
100.022902788871
100.023813015826
100.019348881658
100.019750783997
100.026131615164
100.056884698957
100.069231089789
100.06533860746
100.065140895484
100.072039356788
100.058317046893
100.059067334903
100.058997072121
100.05919002821
100.068898946904
100.064051073609
100.064040073988
100.068845322205
100.059216148804
100.059039615183
100.059067058108
100.058152442951
100.056987512771
100.059039875269
100.057257507087
100.017760867392
100.020930370062
100.021928103118
100.021774043475
100.020973076829
100.021109420602
100.022560507277
100.023208716102
100.026534088944
100.023649609125
100.024658121338
100.028248293126
100.028252547337
100.024668287897
100.023608878828
100.026292367744
100.02579887678
100.019080837014
100.020798976706
100.027579690288
100.028013689805
100.026886866608
100.026756313258
100.027847160348
100.027718388679
100.02681336527
100.027187462856
100.02747824704
100.022258363676
100.023031598456
100.024233141788
100.02419084958
100.022916210093
100.022041389895
100.022966145577
100.022236169664
100.026580140903
100.0278440355
100.028564345294
100.028812291014
100.027975900962
100.027989452212
100.028888727744
100.028719701592
100.028042357001
100.028284338173
100.028479792224
100.028492731623
100.027765078232
100.02736028742
100.027298809971
100.027586171704
100.027135190011
100.02692463969
100.028063633053
100.026270482259
100.026105042328
100.026297572205
100.026454791864
100.025934496175
100.025883537066
100.026428535321
100.026386666589
100.02617811172
100.026409845802
100.026417201603
100.02644042609
100.026319931261
100.028114616427
100.028064498574
100.028362156288
100.028249289904
100.02628165725
100.023971179139
100.023986383766
100.023847760452
100.02383904859
100.023825062543
100.023794617092
100.023698680246
100.023691378025
100.023843291834
100.023804600634
100.02402258783
100.024012420209
100.024102648272
100.024078094198
100.024068684614
100.026294016255
100.02640453662
100.024099212843
100.02223590087
100.022111914508
100.022090909393
100.02195157953
100.021933042587
100.0217404764
100.022160143425
100.022135121762
100.021685667981
100.021874966111
100.021834483903
100.022032760705
100.022062184625
100.022206447281
100.02221286448
100.02221897493
100.020607548165
100.020595634577
100.020441079676
100.020371008619
100.020186891757
100.020178720525
100.019933645712
100.019755345511
100.019786474385
100.019926808747
100.020066352807
100.02003346044
100.020235907701
100.020319655657
100.020527182185
100.020585094006
100.018941030015
100.018974140315
100.018885870203
100.018640077655
100.018488517462
100.018204475209
100.018140747608
100.018017615129
100.017477738884
100.017454720592
100.017867005472
100.017976799045
100.018052014839
100.018306837046
100.018469939595
100.01879241781
100.016777006952
100.017088287829
100.017124333929
100.016870289882
100.016450466361
100.016183979773
100.01574450441
100.015553603068
100.015494022506
100.014583047196
100.014560655427
100.015308979823
100.015352602683
100.015622447915
100.015984291768
100.016287869825
100.013156062714
100.014050372875
100.014648278015
100.014665025424
100.014109168911
100.013261974126
100.013077630665
100.012379092551
100.011648814989
100.011781791651
100.010107540025
100.010133586849
100.01175989697
100.011549876282
100.012295893875
100.012882145391
100.008348995527
100.007767721576
100.009752849824
100.011014739833
100.010990373413
100.009763740754
100.007754190357
100.00835080385
100.007372595593
100.004971554776
100.006375644838
100.003215259337
100.003017737517
100.006176846034
100.005039577983
100.007490085174
99.9950668494677
99.9955341158267
99.9911067794692
99.9950053025302
99.9994756590304
99.999389796703
99.9949368053219
99.9910292658472
99.9954727031198
99.9948058877512
99.9870071253782
99.9911619083709
99.9884386366065
99.9883390633216
99.9911021461362
99.9875905393408
99.9977626166627
100.005326478367
100.004935145882
100.00071039407
100.00952188024
100.011915845575
100.01178599851
100.009229635633
100.000444412035
100.004388557646
100.004666403605
99.9969238844384
99.9922486929063
100.027498914723
100.051975313039
100.052338766559
100.028608681976
99.9939205237183
99.9936083411069
100.088102786511
100.172736748429
100.114361245949
100.114961391354
100.100576359743
100.084945960721
100.073423778991
100.067268075035
100.065124249096
100.070114900999
100.085883553639
100.076555889311
100.076455991942
100.085569301647
100.069535801084
100.064316267232
100.06651023124
100.072244481468
100.08364778905
100.0993649445
100.195155081019
100.21683179953
100.21753857336
100.196320928575
100.1978857617
100.18779765831
100.211029643566
100.249908608119
100.159792585005
100.16271969039
100.218840397455
100.181998154073
100.212099243057
100.239091439844
100.179093369967
100.178989835716
100.239032868906
100.21199069593
100.181581236553
100.218279335041
100.161140381899
100.157747003624
100.209217215194
100.18612926186
100.196402174486
100.29370719009
100.343190865846
100.312186655267
100.313166767149
100.345718785256
100.312351368099
100.296030250096
100.405125815833
100.435280113331
100.408892079346
100.424898290453
100.419909293808
100.376649646687
100.315536549425
100.345916905783
100.292564543864
100.39903610371
100.426946600998
100.398758120657
100.410259298217
100.434227457748
100.384993502393
100.321193879734
100.325447807841
100.252588088391
100.2961468166
100.376630717961
100.414883849048
100.439484197693
100.454508697029
100.463993736251
100.468637584691
100.470725716841
100.471755532142
100.472115293239
100.47206850238
100.471938547922
100.472011016259
100.47228243508
100.47271124683
100.47321884093
100.473831938078
100.474593532848
100.475513888608
100.476675940105
100.478640428465
100.482947938923
100.491720107547
100.5099321408
100.53500363634
100.577208104073
100.568554851669
100.502360474026
100.443815850011
100.384845023808
100.351446680649
100.374752457795
100.373026436781
100.370792428167
100.371383550327
100.372511888143
100.373528670624
100.374707895933
100.376258534071
100.378098904063
100.380012106814
100.381735271578
100.383015160085
100.383653434657
100.383210683599
100.382565607863
100.381645289438
100.38040770329
100.37881080462
100.376831063844
100.37458383912
100.372338937989
100.370328914097
100.368696676843
100.367421043515
100.366470485202
100.365774691424
100.365341921933
100.365201070375
100.365355210568
100.365816163252
100.366616312171
100.367789171316
100.369311398762
100.370939809193
100.372015288859
100.372246445107
100.372078694837
100.372259388668
100.3722627784
100.372313267551
100.372329441598
100.37235412553
100.372419210608
100.37244979445
100.37269536648
100.372847931839
100.372990965659
100.372975545447
100.372930373941
100.372805267271
100.372690786278
100.372535630713
100.372526578125
100.372469494238
100.372708995201
100.372847073435
100.372878113793
100.372722393749
100.372576215787
100.372359346865
100.372313780138
100.372267466883
100.372253274286
100.372253572431
100.372202865099
100.372214988455
100.372124501396
100.372161204877
100.371976374008
100.372164523201
100.37213795363
100.372183129573
100.372188433144
100.372209550528
100.372225920425
100.372247518676
100.372435267403
100.372580156866
100.372733730598
100.372550802017
100.372415098573
100.372286418056
100.372146519082
100.372161678168
100.37215081258
100.372114522928
100.372111226677
100.372078666576
100.372100906279
100.371958475237
100.372012236197
100.371857876182
100.372043192015
100.372017461514
100.372049815624
100.372046922112
100.372086642689
100.372100833498
100.372095205667
100.372182041449
100.372279250148
100.372367332327
100.372372876777
100.372252083609
100.372080312843
100.37191171686
100.371914538013
100.371850715485
100.372083158861
100.372226234342
100.372145914925
100.372088354483
100.372025997255
100.37201672912
100.372013120405
100.371984915971
100.371986017728
100.371956793275
100.371967987166
100.371816878601
100.37181166158
100.371735560303
100.371905912515
100.371895752777
100.371913658377
100.371927360113
100.371961942356
100.371955925067
100.371944964053
100.372000862403
100.372032414432
100.371901177657
100.37190120224
100.371872865677
100.37190324505
100.371902343586
100.371861343554
100.37184577483
100.371834024584
100.371820024956
100.371670296733
100.371617316574
100.371604071709
100.371756961075
100.371769821644
100.371785232456
100.371804554334
100.371830477192
100.371823789747
100.371784399858
100.371855583131
100.371795394379
100.371828534055
100.371737613796
100.371761343089
100.371653710397
100.371748343527
100.371749266701
100.37179421209
100.371738944108
100.371794763179
100.37174640344
100.371716131693
100.371701561267
100.37167417323
100.371538280923
100.371418286518
100.371483366576
100.371602179617
100.371612154378
100.371639655692
100.371650420002
100.371693584353
100.371688264252
100.371724456482
100.371610844564
100.371665228451
100.371449112191
100.371347825678
100.371221382163
100.371343266404
100.371271889651
100.371549043146
100.371585371832
100.37167299735
100.371609520214
100.371647925129
100.371704068956
100.371641803122
100.371536265901
100.371592143208
100.371539950752
100.371508141997
100.371382399824
100.371349258728
100.371047165205
100.370364865366
100.371067641911
100.371352573102
100.371350472963
100.371442989019
100.371482539437
100.371514000104
100.371604284069
100.371607821097
100.371592948483
100.371630034646
100.371544168968
100.371433584801
100.371347497021
100.371289917824
100.371478450608
100.371333501703
100.371487731944
100.371576131079
100.371483959944
100.371534718728
100.371534804436
100.37146441974
100.371419450117
100.371382284957
100.371287764852
100.371274171426
100.371021789102
100.370265595829
100.371059040419
100.37126647177
100.371273649399
100.371337348478
100.371373430858
100.371414545938
100.371467564616
100.371501757106
100.371442452299
100.371504265878
100.371346526264
100.371395816708
100.371504050997
100.371548253329
100.37150008931
100.371420245398
100.371375863202
100.370992662847
100.370873017626
100.371082130577
100.371124357988
100.371336237152
100.37113757999
100.371420145256
100.37146082579
100.371373378746
100.371412296554
100.371365864007
100.371327978432
100.371316448605
100.371261454029
100.371249692572
100.371227077943
100.371051054882
100.370363306943
100.371157620774
100.371216511982
100.371236851215
100.37128231002
100.371247192284
100.371353850143
100.371372355145
100.371427605376
100.37142195631
100.371452704551
100.371525259275
100.37160429487
100.371694339936
100.371729198556
100.371628687586
100.371641839352
100.371697226537
100.371752087197
100.371807599376
100.371865273999
100.371924664121
100.371983925634
100.372038547498
100.372096244117
100.372144270101
100.372210903159
100.372333983802
100.372382592136
100.372413748045
100.372423508526
100.372499273033
100.372550907554
100.372818085523
100.372966932348
100.373106459481
100.373128131927
100.373065067985
100.372971827502
100.372725256023
100.372518159935
100.372373262589
100.372235683965
100.372126279522
100.372153150897
100.372237244735
100.372444566549
100.372581282015
100.372838509105
100.37270896034
100.372539704155
100.372295793617
100.372161395552
100.372091855511
100.371917305465
100.371765738381
100.371592073666
100.371447591008
100.371492806277
100.371508429411
100.371727362084
100.371954232325
100.372092762989
100.372217727455
100.372315083283
100.37223078496
100.372074834528
100.371874109057
100.371725020065
100.371760369111
100.371689055301
100.371514512916
100.371421531022
100.371199103938
100.370914967536
100.370662394679
100.370537497215
100.370334221011
100.370515944403
100.370557512108
100.370812117664
100.371167345924
100.370971156421
100.370836540545
100.370636634908
100.370459211842
100.370776865567
100.370731368206
100.371100883172
100.371104593515
100.371065534714
100.371316173654
100.3713789643
100.371624712965
100.371546074955
100.371596482416
100.371650840861
100.371687767296
100.371832063111
100.371886583868
100.371960928734
100.372008808842
100.372063254506
100.372095816472
100.372132152363
100.372155078794
100.372177466574
100.372192492577
100.372226849561
100.372260072398
100.372268503005
100.372404207018
100.372462396957
100.37249891343
100.372486298643
100.372598265688
100.372674840254
100.372949912673
100.37306809388
100.373232126987
100.373203267078
100.373206818921
100.373237466932
100.37309896711
100.372895938285
100.372775340662
100.372672348491
100.372378927918
100.371991459643
100.371817093218
100.371687623087
100.371483730545
100.371327851952
100.371188649114
100.371062868916
100.370909529392
100.37080076544
100.370657247278
100.370758099826
100.370906260309
100.371130179686
100.371285258322
100.37143362581
100.371534621679
100.371678583048
100.371808773191
100.371952808995
100.372075051684
100.371925614514
100.372121408567
100.372365762472
100.372322720489
100.372489730707
100.372390479718
100.372224949535
100.372043814133
100.37209973629
100.372185937735
100.372310734858
100.372344964352
100.372485330291
100.372534676227
100.372574337495
100.372571394214
100.372709671104
100.372779236383
100.373042183415
100.37314949795
100.37328840452
100.373282421884
100.373325823115
100.373187597851
100.37302501993
100.372770784662
100.37247650184
100.372147278782
100.37158270922
100.371328061
100.37116079124
100.370989436339
100.370798389061
100.370621768483
100.370432427881
100.370281068012
100.370163701807
100.370382402489
100.370591038024
100.370818361145
100.371151268235
100.371206841878
100.371412347232
100.371233819588
100.37146540772
100.371651738719
100.371488825679
100.371749771781
100.372132339386
100.372398094969
100.372391084588
100.372337632646
100.372408514814
100.372453284185
100.372561781847
100.372595103555
100.372648089716
100.372649204945
100.3727960204
100.372865065389
100.373114287203
100.373229490881
100.373386217911
100.37337653138
100.373426881201
100.373291433425
100.373158998785
100.372922495045
100.372608356517
100.372311260558
100.371791454158
100.371554139522
100.371214549173
100.371010694599
100.37093559819
100.370705263192
100.370540904398
100.370368400845
100.370206326853
100.369971810349
100.369743706283
100.369532985001
100.36935669642
100.369168139068
100.368908243707
100.368677742873
100.368989828629
100.369295828387
100.369483168803
100.369645111753
100.369827016847
100.370023968801
100.370278522297
100.370495130682
100.370642855399
100.370779623951
100.37101524249
100.370870974433
100.370706140335
100.370276109033
100.370338300215
100.370546355273
100.370554929579
100.371098688414
100.371390287206
100.371943835829
100.372271219446
100.372249113426
100.37223034299
100.372307766693
100.372351545433
100.372193635731
100.372292719508
100.372372792378
100.372329524471
100.372451733098
100.372513231964
100.372654585525
100.372662898394
100.37272822921
100.372721433431
100.372879565969
100.37295887249
100.373197071192
100.373323408272
100.373513696988
100.373443272726
100.373547544532
100.373415511107
100.373276010691
100.373035947826
100.372742167807
100.37244320895
100.371932198805
100.371686782601
100.371249958594
100.371160560942
100.37100596528
100.371014494386
100.370947249874
100.371057999602
100.370872951817
100.370695232242
100.370541544226
100.370369351091
100.37017276594
100.369920501468
100.369681933082
100.369440433889
100.36919854703
100.368874348762
100.368515105844
100.368178749854
100.367910731839
100.367492285649
100.36775341702
100.368134893276
100.368421816131
100.368761845712
100.369015607713
100.369225438447
100.369483395538
100.369729582075
100.369989628757
100.370164312932
100.370332291444
100.370486145983
100.370708698661
100.370656452533
100.370535749126
100.370350592467
100.370260709658
100.370198095693
100.370510580422
100.370087467082
100.369820484969
100.369426498696
100.368987727981
100.368523671201
100.367958993657
100.367227112134
100.366189431496
100.364775100552
100.364007558198
100.364197746584
100.364995044837
100.365836981191
100.36656718886
100.367325069384
100.36792221262
100.368475492563
100.36896410586
100.36938472136
100.369762519532
100.370336644032
100.368638996724
100.368063042913
100.36771319854
100.367364935922
100.367059198026
100.366745905816
100.366258071484
100.365651239813
100.364590258707
100.363631093719
100.360525633567
100.358128984853
100.362030915715
100.361237585205
100.360734610321
100.357737360024
100.358063679895
100.357286714077
100.359702336322
100.360956615675
100.361724724768
100.36296199022
100.363893462195
100.365191819617
100.366244286838
100.366956880951
100.367690254198
100.368254199793
100.368809370101
100.369255127961
100.369642354843
100.36998209848
100.370415259955
100.370346305669
100.370977512706
100.36912769022
100.372635773593
100.372849593253
100.372954635272
100.373111409371
100.373198907478
100.372962782008
100.372260557678
100.371301805917
100.370242706471
100.36891028501
100.367125016601
100.365461864068
100.364174724993
100.365587606852
100.3661840437
100.362599804362
100.360309772338
100.359371811243
100.350301759949
100.353504085901
100.3523798624
100.355773534041
100.35781734775
100.365901663809
100.367607984184
100.369993304454
100.369813523728
100.369981928416
100.370127147946
100.370381500978
100.370702562057
100.371030986232
100.371406466472
100.37173727338
100.370342313014
100.368717953538
100.36727565204
100.366211755992
100.365533134899
100.365192950475
100.365172902142
100.365447677807
100.365992543221
100.366754450197
100.367751382774
100.369049969249
100.370682688367
100.37263413856
100.374745073728
100.376799146745
100.378568401895
100.379959053521
100.38101082971
100.381778212075
100.382322507668
100.382729163922
100.383094622345
100.383997908377
100.384056382457
100.383738520197
100.383276673358
100.382582369236
100.381584685553
100.38026800905
100.378584337777
100.376486792608
100.374125765847
100.37182107004
100.369816362215
100.368233105919
100.367025061915
100.366152684427
100.365566876581
100.365276187325
100.365277434061
100.365567184163
100.366151877306
100.367078488779
100.368379858821
100.369972092661
100.371529253992
100.372260769129
100.372423958716
100.372505224449
100.372469783654
100.372466752123
100.372567279096
100.372714496227
100.372711368048
100.372803284587
100.372813156362
100.373011714986
100.373106553709
100.373296822222
100.373470776797
100.373499764393
100.373595248929
100.373661773822
100.373678328222
100.373558491646
100.373426993006
100.373134895166
100.372894643647
100.372708313826
100.372553439244
100.372226177786
100.371857215629
100.371430891558
100.371285028389
100.371112505407
100.371096490741
100.371226502112
100.371155536225
100.37144639912
100.371329081464
100.371146324564
100.371290005374
100.371070634931
100.370909555073
100.370750740244
100.370530667827
100.370283487496
100.370040845387
100.369766628886
100.369452061978
100.369176180608
100.368691676811
100.368913648575
100.369282109528
100.369595663666
100.369856036765
100.370097019441
100.370351751389
100.370566056282
100.370727580136
100.370902785389
100.37112659984
100.370948986809
100.370978322884
100.371014453179
100.370759538884
100.370350176488
100.370027485655
100.369928768399
100.370091132132
100.370471872421
100.370742692789
100.372157249112
100.372105930754
100.372762034476
100.37255961806
100.372357161635
100.372669612919
100.37259083541
100.37270542608
100.372897149254
100.372824798208
100.372932989663
100.372991299562
100.37323561236
100.373525159963
100.373715538685
100.373841607776
100.373844390058
100.373766761142
100.373698754129
100.373578894203
100.373296949188
100.373053036353
100.372675932813
100.37234351868
100.371992248916
100.371582190954
100.371416213034
100.371115480083
100.371233400299
100.371087014689
100.371227228619
100.371347822146
100.371580843737
100.371500466551
100.371762018163
100.37158901713
100.371616648606
100.371480814135
100.371358115396
100.371219040494
100.371048584718
100.370855483785
100.370661887507
100.370441631458
100.370183985292
100.369898378683
100.369599946995
100.369252196803
100.368818501403
100.368337151751
100.367973825721
100.367509211137
100.367845390238
100.368296727502
100.36874792043
100.368993264078
100.369328353311
100.369648426947
100.369946123162
100.370203975557
100.370442369359
100.370662484052
100.370853456586
100.371027640296
100.371216849594
100.371435772546
100.371574077476
100.371444936097
100.371339276154
100.371326300848
100.370998751158
100.369972206197
100.369202373314
100.368977176554
100.369188196898
100.369483979383
100.370166206439
100.370669432994
100.370630075438
100.369661832115
100.371647645511
100.369858166398
100.372227998638
100.37240735791
100.373847696229
100.372139342643
100.371534230829
100.370858458818
100.369981174909
100.36910176534
100.368407208502
100.367843690279
100.367417599031
100.367104084676
100.366602096968
100.366807865662
100.364973674865
100.36422808681
100.363152130312
100.362189900326
100.360258001278
100.359554536192
100.358750217813
100.358728765925
100.350291960064
100.353423103207
100.351055574525
100.351212056756
100.35288548648
100.354004824264
100.353027273734
100.353479858564
100.353877555171
100.359260835217
100.357013027678
100.358341002292
100.356489776332
100.354897553651
100.355386469352
100.357537778207
100.358915478253
100.359951139592
100.36013843579
100.357831110986
100.358574602622
100.360982941975
100.362310649279
100.364046997927
100.363731348843
100.365185057746
100.366268605551
100.367324560494
100.36810959344
100.368804955726
100.369319046593
100.369734306037
100.370070884067
100.370399935644
100.370539765669
100.370530795085
100.370700005471
100.370833985597
100.370005772748
100.368985869099
100.371590135734
100.372649922105
100.373002337423
100.372747035186
100.372732754137
100.372851527099
100.372817323881
100.373071772421
100.373015440343
100.373127670388
100.373211543777
100.373467420556
100.373591966221
100.373899006769
100.374061305244
100.374009183702
100.374073684327
100.373995936593
100.373958936609
100.373951549489
100.373847182856
100.373700186566
100.37344857471
100.373205981816
100.373139167684
100.372669785972
100.372427958631
100.372180554222
100.372059982679
100.371806354024
100.371560662277
100.371269289265
100.371348248064
100.371337321385
100.371517062397
100.371690628091
100.371610822804
100.371818488621
100.371746561987
100.371889048629
100.371781611497
100.371683203062
100.371540386162
100.37153974177
100.371340157868
100.371193955582
100.371013470203
100.370824128588
100.370593399331
100.370367347954
100.370081676785
100.369778995778
100.369472518181
100.369107434051
100.368676996346
100.368314016287
100.368537747074
100.368979625404
100.369345967932
100.369663515665
100.36996855579
100.370252200289
100.370487267051
100.370706254263
100.370912364817
100.37110504296
100.37126927812
100.371435824072
100.371444696346
100.371506521909
100.371292915851
100.371064281821
100.371296822074
100.37039491687
100.370634820438
100.369796290331
100.3702456108
100.370666486648
100.370744926304
100.371078453458
100.370990332445
100.37133126315
100.369434133499
100.373283053669
100.374833401366
100.373102120965
100.371834778833
100.371969639777
100.37042816795
100.369657853386
100.368732840159
100.367810973041
100.367300986622
100.366861537815
100.366498826053
100.366173758623
100.365708970768
100.365129721413
100.365269276987
100.365903607974
100.36645575657
100.36693922397
100.367462515597
100.368003067443
100.368623535159
100.369381384842
100.370085057061
100.370859213461
100.371791821609
100.371043623099
100.370870568204
100.371636007619
100.372023439145
100.372609050741
100.372568799999
100.37253036274
100.372720076641
100.372650539311
100.372868081188
100.372875401945
100.372891283168
100.37308640174
100.373112067348
100.37332755513
100.373627325367
100.373805483595
100.373927722357
100.373930087455
100.373933969237
100.373871457224
100.37371797503
100.373429994331
100.373040916443
100.372793029172
100.373090257896
100.373231586008
100.37341237212
100.373721237546
100.373872432433
100.374007762307
100.374071373697
100.373918087707
100.373774915328
100.373555529359
100.373490841417
100.373372757899
100.373090497224
100.373071884383
100.372993881202
100.373032053616
100.372762201836
100.372822597642
100.372703716675
100.372655321032
100.372541553869
100.372776438594
100.372693871458
100.372930060202
100.372950380929
100.373007796626
100.372997372919
100.372583210253
100.372676157999
100.37280118025
100.37293583467
100.373235735241
100.37328733699
100.373490226003
100.373862930227
100.374047274917
100.37408504019
100.374027384198
100.373859411733
100.373803609833
100.373619253036
100.373577850811
100.373503272819
100.373398622296
100.373194243102
100.372964472538
100.372588915356
100.372487205005
100.372074120047
100.371846050211
100.371665846317
100.371373092854
100.371467247076
100.371356923307
100.371665276043
100.371545732962
100.371665516035
100.371755161636
100.371886207332
100.371841242821
100.371972301341
100.371923449075
100.371984139492
100.371894978264
100.371785305462
100.371653176019
100.371485275501
100.371308375482
100.371137245562
100.37093392176
100.370730656912
100.370472932849
100.370233186575
100.369929688075
100.369604385464
100.369276454836
100.368878425911
100.368410443284
100.36805302176
100.36753177225
100.366878956104
100.366204044309
100.365568182322
100.364666971897
100.36387108028
100.36477339912
100.365611765917
100.366272572628
100.366960660511
100.367545229594
100.367980164371
100.368169635889
100.367791531882
100.367474360794
100.36686078585
100.36617940394
100.365440675944
100.364432338707
100.365259109977
100.365818274415
100.366518619496
100.36707227087
100.367427644474
100.366774123578
100.366189356419
100.365344662247
100.365903822401
100.366456705324
100.367017667926
100.367637533458
100.368154469375
100.368553252744
100.368710798425
100.368194408247
100.367743290705
100.367330705674
100.366882831723
100.366143396701
100.366648420457
100.367253414876
100.367560049191
100.367911783259
100.368309601715
100.368831618354
100.369219907938
100.369503106229
100.369748347547
100.369984645476
100.370237123473
100.370440568806
100.370612201627
100.370779210934
100.370707765588
100.370397488826
100.370031021606
100.369665971092
100.369809815127
100.369910462971
100.370164614962
100.370603025159
100.370913854166
100.370798047014
100.370871101588
100.371002405206
100.370297341403
100.369859028325
100.37026080017
100.369788636184
100.369227203421
100.368482699308
100.367661996367
100.366604489368
100.365490549025
100.365093667728
100.366566550273
100.367809448703
100.36873920108
100.36953362887
100.370112627444
100.370579702716
100.370912809633
100.370624427336
100.37094735305
100.371101993858
100.371244131927
100.371212434862
100.37096749691
100.37103768186
100.370813043752
100.370909955221
100.371708239814
100.37024831481
100.372528529697
100.372973549188
100.374526956145
100.37314495324
100.372771448779
100.371501337071
100.370781635713
100.369826017414