/*--------------------------------*- C++ -*----------------------------------*\
| =========                 |                                                 |
| \\      /  F ield         | OpenFOAM: The Open Source CFD Toolbox           |
|  \\    /   O peration     | Version:  v1612+                                |
|   \\  /    A nd           | Web:      www.OpenFOAM.com                      |
|    \\/     M anipulation  |                                                 |
\*---------------------------------------------------------------------------*/
FoamFile
{
    version     2.0;
    format      ascii;
    class       volScalarField;
    location    "0.5";
    object      p;
}
// * * * * * * * * * * * * * * * * * * * * * * * * * * * * * * * * * * * * * //

dimensions      [0 2 -2 0 0 0 0];

internalField   nonuniform List<scalar> 
80571
(
100.26237076959
100.26195373738
100.261413157676
100.264303661857
100.2687628407
100.268790754511
100.26918724722
100.269886101954
100.267715558092
100.267770375875
100.267962136578
100.267845392398
100.267955863602
100.268132438394
100.267884809914
100.267739091122
100.269903442791
100.269177606199
100.268778522738
100.268754490649
100.269461747256
100.270007761197
100.267730643741
100.268044020008
100.268303672766
100.26761582926
100.267615821993
100.268303946261
100.268044243401
100.267731119237
100.270012061789
100.269465121425
100.268756161657
100.268779161764
100.269177013311
100.269901707852
100.26774080225
100.267886304034
100.268131674296
100.267957051236
100.267847023954
100.267963595688
100.267773767287
100.267718362661
100.269885307001
100.269186786176
100.268791266683
100.268764745136
100.269474741469
100.270024312603
100.267735428837
100.268049802788
100.268312727964
100.267624851968
100.267625270496
100.268313712065
100.268050372359
100.267735116214
100.270020614129
100.269471616741
100.264718162367
100.264988637962
100.264342187939
100.264048320533
100.264410274593
100.264684485087
100.264684478884
100.264409917845
100.264047168055
100.264341914878
100.26498972324
100.264718481621
100.264304786731
100.264685575085
100.265404521852
100.26580302736
100.265855187539
100.265984434852
100.265609357389
100.265982718118
100.266045874013
100.265639264188
100.265949706376
100.265844885184
100.265807988717
100.265400036466
100.264693808046
100.264297882575
100.264714346173
100.26498206416
100.264335018243
100.264040198538
100.264401850019
100.264676595904
100.264676764226
100.26440235776
100.26404050269
100.264335162989
100.264982103986
100.264714771187
100.2642969109
100.264693325239
100.265399290131
100.265807904642
100.265843622636
100.265946090381
100.265636989531
100.266043286648
100.265980043913
100.265607525663
100.265981229772
100.265853889945
100.26580307583
100.265403570696
100.264684681914
100.261914126232
100.26294104118
100.261261257569
100.261905154487
100.26222288137
100.2619667016
100.262522175066
100.260628632947
100.260602808167
100.26162401691
100.261624219631
100.260601536202
100.260626165437
100.262521394607
100.261969628062
100.262044887778
100.261414157421
100.261913774275
100.262941672655
100.263108123175
100.264347015577
100.264558757184
100.263448460714
100.263349480104
100.26329973235
100.263356490143
100.264477516752
100.26431029947
100.263099253443
100.262936873128
100.261914193686
100.261412862934
100.262038209213
100.261960531635
100.26251405115
100.260619396772
100.260594235091
100.261616905678
100.261617018731
100.260594533542
100.260619989025
100.262514410046
100.2619599571
100.262038762125
100.261411794321
100.26191462565
100.26293618793
100.263100316045
100.264309366196
100.264469884718
100.263351352028
100.263296894067
100.263346831145
100.263442376398
100.264550338911
100.26434579187
100.263110931954
100.261251070225
100.253192750814
100.253523587783
100.253576164076
100.253769458503
100.254034296111
100.262922093469
100.261598339741
100.261765635432
100.261764992526
100.26159593285
100.262923578836
100.262223725084
100.261899833815
100.261953271106
100.261262891819
100.261245422892
100.26136680296
100.265754688907
100.263012071455
100.26294207722
100.265668146408
100.261361107895
100.261246754648
100.261276809364
100.26187836311
100.261950488264
100.262369283525
100.263214716476
100.263956312034
100.263826412641
100.264364261459
100.266607652414
100.266638873088
100.265227842324
100.263835121563
100.262847820839
100.262235405437
100.261950511079
100.26195047743
100.262235281969
100.262847542893
100.263834639764
100.265227307168
100.267076926847
100.267301778043
100.265794667803
100.264145058095
100.262931049446
100.262090840301
100.261587480588
100.26133922818
100.261339267175
100.26158761085
100.262091098707
100.26293146816
100.264145655721
100.26579561667
100.267301680918
100.267076899597
100.265133576653
100.265439710388
100.265257766285
100.264797006604
100.264570514079
100.263998645038
100.264779282134
100.264512948536
100.263005340226
100.259940328376
100.254618695997
100.2532021774
100.253524139894
100.253590816155
100.25378240831
100.254039768515
100.254039667277
100.253782060639
100.253589926303
100.253523700577
100.253201851311
100.253269672704
100.253257151825
100.252086618643
100.251950586273
100.252024592232
100.251885478676
100.251954507468
100.252016152853
100.252016269293
100.254034767379
100.253769738321
100.253576756794
100.253524064165
100.253192769664
100.253255362972
100.253268199843
100.252088975287
100.251950367738
100.252023006203
100.251901024721
100.251965760741
100.252023721172
100.252023605237
100.251965498541
100.251899642326
100.252022486546
100.251948359109
100.252088370585
100.252532157253
100.252535084539
100.252414097452
100.252454712626
100.252333597196
100.252373251883
100.252370059918
100.252370219895
100.252373402272
100.251954734227
100.251886854744
100.25202511532
100.251952477341
100.252087140926
100.252536176417
100.252533373902
100.252414745661
100.252457646332
100.252341897771
100.252379308821
100.252377310291
100.252377145308
100.252378970317
100.252340646927
100.252456907842
100.252412938452
100.252162801636
100.252208802847
100.252207947704
100.252162097244
100.25223317536
100.252172969279
100.252190405159
100.252177673946
100.252177891779
100.252190700585
100.252174358917
100.252334768972
100.252455326973
100.252415774511
100.25216345696
100.252209293479
100.252210303853
100.252164600452
100.252236078204
100.252178401751
100.252194528058
100.252182483911
100.25218226595
100.252193970407
100.252176599201
100.252235211159
100.251216746436
100.251149894967
100.251186911713
100.251184600595
100.251144952742
100.251215196637
100.251183008735
100.251197177597
100.251206630191
100.251207045373
100.251197846325
100.251184806439
100.251216302255
100.252233923451
100.252402889384
100.251336460079
100.25114685636
100.251186502359
100.25118890332
100.251152848216
100.251217193472
100.25118826399
100.251203479386
100.251212803541
100.251212312106
100.251202534369
100.251185958794
100.24996466738
100.249991469068
100.24993686393
100.249991148568
100.249989114315
100.249932275937
100.249985726253
100.249959193254
100.24996456002
100.249994920154
100.249995696964
100.249965464164
100.249961914266
100.249986727435
100.249936543568
100.249991987892
100.249993573159
100.249940360463
100.249992500759
100.249968056266
100.249973217762
100.250004210292
100.250003286704
100.2499724334
100.24864652101
100.248678939218
100.248701206818
100.248629837779
100.248713748104
100.248710701357
100.248624972296
100.24869279699
100.248669236039
100.248634372751
100.24869729701
100.248699604129
100.248635340402
100.248673594838
100.248696345427
100.248630795112
100.248714455339
100.24871630793
100.248633585202
100.248704622343
100.248681552108
100.248645576784
100.248712058102
100.248709578902
100.247118353695
100.246952358038
100.247075269682
100.247090602515
100.246950082897
100.247126206268
100.247119273532
100.246939650363
100.247078954874
100.247060119687
100.24693738457
100.247098105958
100.247109569925
100.246937173297
100.247066333011
100.247086877585
100.246948431829
100.24712443074
100.247127992352
100.246952093102
100.247095455964
100.247074716144
100.24694873291
100.247127437867
100.244830986423
100.244824552689
100.24437247457
100.244678959035
100.24468966427
100.244390574797
100.244823330672
100.244809254739
100.2443665382
100.244670603854
100.244657807699
100.244351107517
100.244804011956
100.244806412803
100.244352110464
100.244665930531
100.244684389319
100.244379839932
100.244818861501
100.244824334291
100.244386351034
100.244698095024
100.244685004597
100.244374699456
100.239478944847
100.240751458557
100.240742415299
100.239469020312
100.240291528849
100.240286535614
100.239512192099
100.240757518981
100.240722441482
100.239455315629
100.240260619234
100.240263250793
100.239443020839
100.240716408016
100.240717084003
100.23944144552
100.24027212273
100.240282787056
100.239477758514
100.240741303316
100.240749357083
100.239487180764
100.24030225138
100.240301280942
100.233734023833
100.231882772076
100.234763072884
100.234756607503
100.231865718845
100.233708973717
100.233690950551
100.232031505606
100.234861277044
100.234748110265
100.231834265589
100.233661430111
100.233674231579
100.231833801593
100.234723573093
100.234713282895
100.231816934514
100.233697700578
100.233702461717
100.23187656062
100.234784736899
100.234804424338
100.231917160236
100.23372689468
100.242656126859
100.242750518083
100.240910437238
100.243402594232
100.243450754513
100.241217594535
100.242629646401
100.242544353637
100.240988214351
100.243282798796
100.243405842585
100.240891820005
100.24260920537
100.242615473243
100.241173253869
100.243377977023
100.243310621261
100.240835407618
100.242722736185
100.242687274177
100.240991915683
100.243513846464
100.243585163182
100.241331567599
100.278046119118
100.272811426104
100.273188785122
100.278345843142
100.27415841265
100.274193819383
100.278402870189
100.273196958697
100.27276003324
100.277984411222
100.274003288963
100.273986307503
100.27794514619
100.272717825192
100.273111596545
100.278250501403
100.274041215704
100.274038315388
100.27824897899
100.273143642805
100.272777663115
100.278025438227
100.274094497522
100.274104345867
100.312084885538
100.328954377494
100.317747306968
100.328121289116
100.310844014763
100.327582338569
100.317336334437
100.329153641875
100.311745292072
100.311820777957
100.329253417865
100.317422669821
100.327599496951
100.328208846185
100.317862707732
100.329035282473
100.345614079874
100.345624196274
100.328932876925
100.312032160285
100.312112527089
100.359069396865
100.388296251273
100.375475962614
100.375503291136
100.384466506355
100.373999951054
100.361750152924
100.317705566227
100.328094057498
100.327437374151
100.31075358145
100.365504708675
100.386333601654
100.36698172523
100.366945250022
100.373719497308
100.383385685363
100.360578179368
100.317163000773
100.328983811043
100.345610385945
100.31158000661
100.311593913564
100.329022908584
100.317209752934
100.327462297837
100.310786495165
100.328093711284
100.317740151394
100.328965030891
100.312083618583
100.345759938254
100.345723457556
100.375657460469
100.384324631781
100.361672211587
100.373903704467
100.366942729182
100.367107866275
100.373890529961
100.360819906668
100.383635827537
100.374401090835
100.374419822239
100.383602068618
100.37389659503
100.367108201783
100.367042845229
100.373994572594
100.384399308913
100.401639219746
100.404469709808
100.410068393875
100.410075096247
100.404514192692
100.396510553683
100.396478405179
100.411245136344
100.417273268844
100.416288106285
100.416308650714
100.415652758456
100.414268233672
100.412325813582
100.401725742931
100.405400643189
100.404212103348
100.394030560862
100.413870541263
100.415509042705
100.414390840839
100.412716411252
100.412742472938
100.413935202267
100.404609543892
100.393646481734
100.404283581353
100.413267123438
100.415191433391
100.418400341161
100.418889008022
100.418798236468
100.419332945133
100.419580152161
100.419596341772
100.419626751661
100.419676310251
100.419717991151
100.419758986696
100.419797152977
100.419832578807
100.419893484015
100.420009426982
100.420181740937
100.420484369114
100.42111309343
100.422537736388
100.425259594019
100.430941223352
100.439475072021
100.456059446673
100.448409792735
100.402593585094
100.359095711504
100.313192141085
100.288520047825
100.303590312178
100.304385389244
100.302200776696
100.301966018349
100.302894582178
100.304013717097
100.305198472148
100.306581317626
100.30811496142
100.309587055193
100.310777140531
100.311572582495
100.311932564093
100.311215915084
100.310290420658
100.309179891644
100.30788350055
100.306340518657
100.304592613374
100.302835387429
100.301256363629
100.299967345043
100.298949884145
100.298138303111
100.297413702181
100.296685816338
100.295935455925
100.295258873802
100.294894556645
100.295198849509
100.296534423562
100.298751017231
100.301034858467
100.302333955928
100.30251157604
100.302467177298
100.302567472903
100.3025257877
100.302537631781
100.302506103593
100.302499382819
100.302481966695
100.302438561952
100.302413485837
100.302337490036
100.30221787739
100.302058689527
100.302076094508
100.302207165763
100.302396403064
100.302382433949
100.302240897417
100.302342981179
100.302424661154
100.302451941642
100.302498622707
100.302519343809
100.302530114035
100.302532059078
100.302536106524
100.302563418762
100.30255123449
100.302600838768
100.302500093486
100.30257740376
100.302585815823
100.302633899424
100.302577737158
100.302594960497
100.302549128844
100.302544088357
100.302501506055
100.302447529697
100.302426145181
100.302354982749
100.302455164767
100.302378109074
100.302535976985
100.302634802771
100.302631114101
100.302580359759
100.302433083198
100.302446103719
100.302521090345
100.302546815111
100.302571859404
100.302622970191
100.302612563279
100.302670604359
100.302623189665
100.302709737408
100.302748082978
100.302705277046
100.302655333494
100.302638456802
100.302592024775
100.302554178593
100.30257502836
100.302529405509
100.302542331522
100.302534128024
100.302683534071
100.302782106833
100.302849560707
100.3029244828
100.302844694561
100.303030186552
100.303093693998
100.303247885938
100.303335538436
100.303257291567
100.303060392765
100.302906424996
100.302783114283
100.302582169236
100.302617601256
100.302597494948
100.302633600954
100.302651422887
100.302704021878
100.302742247466
100.302755755439
100.302874329268
100.302701613054
100.302871571995
100.302821872544
100.30289644933
100.30277578635
100.30277054261
100.302782574274
100.302710337035
100.302753534875
100.302683698649
100.302654782638
100.302728879604
100.302687997932
100.302892992215
100.303037696263
100.30319403006
100.303217074108
100.303248423846
100.303129327979
100.303067399744
100.30291288948
100.302873407968
100.302755646759
100.302837784137
100.30278806743
100.30275387604
100.302774377975
100.302844087772
100.302795284326
100.302936392482
100.302820773869
100.303028044737
100.302958726356
100.302969574879
100.302844728858
100.302878545682
100.302814713243
100.302862754222
100.302913762819
100.302888996087
100.302980487894
100.303188669162
100.303332988176
100.303483223366
100.303592646301
100.303477182092
100.303707003095
100.303625894505
100.303804227242
100.303912077627
100.303809197132
100.303631129925
100.303387615609
100.303242853904
100.303019269463
100.302954099949
100.303050992871
100.302946921672
100.303035980581
100.30294751335
100.302901320199
100.303010094989
100.30296813624
100.303115314081
100.303117714987
100.303044967791
100.30294980263
100.303049367941
100.303004093891
100.303014167504
100.302921090036
100.303057588911
100.303105540401
100.303366021818
100.303537469207
100.303802009547
100.303840820825
100.303878321587
100.303645610013
100.303583029857
100.303336866688
100.303200754436
100.302991373919
100.303052723566
100.303031160043
100.303097093376
100.303120527037
100.303087764076
100.303131781814
100.303284753219
100.30307265496
100.30331187257
100.303250715437
100.303302923395
100.303145812461
100.303145747718
100.303158130169
100.303232285296
100.303136323273
100.303225932807
100.303148437413
100.303350228349
100.303792050544
100.3040758698
100.30427884081
100.304299016537
100.304404853977
100.304466463481
100.304421980684
100.30417549468
100.303876008814
100.303516589062
100.303334955896
100.303151593094
100.303117204571
100.303228835877
100.303164555494
100.303203447398
100.303337958092
100.303201614263
100.303313127675
100.303303074268
100.303209621229
100.303396185539
100.303355539595
100.303365170951
100.303335130577
100.303286600891
100.303489070413
100.303334085784
100.303451660957
100.303411689537
100.303529885296
100.303719662489
100.30407620832
100.304365407606
100.304386048417
100.304296217787
100.304029539373
100.30409938988
100.304364484856
100.304578705598
100.304488979982
100.304637191653
100.304414073252
100.304457753996
100.304444047176
100.304199593952
100.303904358152
100.303682241163
100.303551085756
100.303389908849
100.303352694846
100.303439253622
100.303374400045
100.30339579024
100.303444973502
100.303377934869
100.303400572441
100.303549957519
100.303539242612
100.303227890222
100.303582605836
100.303402398154
100.303399338054
100.303576878582
100.303423317358
100.303432952187
100.303495900823
100.303426556547
100.303489508211
100.303480548683
100.303731195709
100.303905698782
100.303917707849
100.304282551526
100.304555218559
100.30482744478
100.304739362726
100.304915438043
100.304826957635
100.304799997672
100.304797182545
100.304485616526
100.304116940477
100.303910759512
100.303654405787
100.30367128643
100.303668377498
100.303532334446
100.303625500414
100.30351451768
100.30347019393
100.303595720994
100.303577211913
100.303576173641
100.303800996464
100.30369979038
100.30333008514
100.303573629637
100.303290260871
100.302808224584
100.303164525674
100.302913177029
100.302522680565
100.302022687498
100.302635576012
100.30246967283
100.301504696916
100.299571483689
100.297397327402
100.295799213116
100.295131451207
100.295170801405
100.295639181025
100.296307340639
100.297027161751
100.297772086855
100.298591901028
100.299581317117
100.300808792129
100.302311281751
100.303993670227
100.30568867209
100.307220262622
100.308529656738
100.309657448947
100.31060752809
100.311348081893
100.311913596314
100.312474177709
100.312848970545
100.312327163641
100.311628371209
100.310718420982
100.309606824381
100.308300188601
100.306748168925
100.304988460273
100.303208507614
100.301590803095
100.300256464193
100.299218311722
100.298413772206
100.297714807088
100.29700500218
100.296233071961
100.295439067484
100.294852278092
100.294874932095
100.295961228753
100.298120567363
100.300635757715
100.302227070765
100.30248587498
100.302403257049
100.302516436502
100.302501760427
100.302499770247
100.302483165943
100.302467911807
100.302443945989
100.302409064435
100.302375488364
100.302285506995
100.302153978192
100.301992537662
100.302053008143
100.301857952361
100.301476255557
100.300889313244
100.300986186794
100.301238884779
100.301742260574
100.301681532265
100.301510307673
100.30187153798
100.301915334267
100.302123054769
100.301874607691
100.302181638936
100.302513568988
100.302332442226
100.301981570504
100.302411707183
100.302633612427
100.302875967461
100.303255396405
100.3031581565
100.302988013993
100.302694572911
100.302647976577
100.302582695191
100.302613074544
100.302501895935
100.302354401318
100.302210640916
100.302516180691
100.302638451564
100.302628103483
100.302590813635
100.302555493032
100.302522305941
100.302508300217
100.30249480847
100.302511747501
100.302512875772
100.30249222072
100.302478840044
100.302462206803
100.302420109536
100.302391232426
100.302311591683
100.302194867869
100.302166138145
100.302294995891
100.302413237002
100.302447778286
100.302489847945
100.302474401038
100.302465056109
100.302457037895
100.302435508991
100.302394971244
100.302363298151
100.302273962382
100.302159901805
100.301952561189
100.301722616223
100.301951312731
100.301746565645
100.301422075966
100.300830902037
100.300085985728
100.299113393033
100.297441355326
100.299035464728
100.299082031867
100.29941485417
100.299928370146
100.300490410818
100.300982610904
100.301681493922
100.301597650955
100.301256817063
100.300660848123
100.30027741089
100.300113404109
100.299917654294
100.300767860031
100.301198859087
100.301838631039
100.3020545337
100.302444681108
100.302541772017
100.302591800709
100.302556002309
100.302488647042
100.302482144765
100.302495743113
100.302491137465
100.302476374813
100.302475715049
100.302448908089
100.302431593374
100.302382151005
100.302358455873
100.302269785445
100.302199870428
100.302062383011
100.301916429603
100.301541814099
100.301119686572
100.300794741479
100.30002524873
100.299054677601
100.297348647071
100.295420062567
100.292652138148
100.293233374928
100.294156520405
100.295152800714
100.296230389695
100.297783804079
100.297817925506
100.297126394441
100.296618167636
100.295835383098
100.295431534632
100.297400580287
100.298793213235
100.299107786381
100.300886320241
100.302148377072
100.302517404516
100.302372566048
100.302376560136
100.30250479396
100.302498566064
100.302493376896
100.302487711313
100.302486177547
100.302476184021
100.302445500345
100.302433124967
100.302380953542
100.302372410727
100.302287335351
100.302248116514
100.302126673581
100.302019264213
100.301648994797
100.301298259645
100.300407734156
100.299497100674
100.297644556632
100.297620249521
100.295479973413
100.292654185054
100.288639211113
100.28367512597
100.263720842383
100.272486891366
100.283389280929
100.28479837131
100.28913995192
100.290176983764
100.285093527272
100.288170411276
100.290507709525
100.292422844528
100.294202822298
100.295299807297
100.29661451266
100.296817576884
100.296046345158
100.294329457857
100.292821068486
100.291573765789
100.291276728906
100.293906910566
100.295990048208
100.296746569402
100.299370559897
100.300881460801
100.302459742506
100.302591053398
100.302408595653
100.302407817963
100.302538762872
100.302508258839
100.302474551197
100.30246629168
100.302472076551
100.302475014596
100.302498290608
100.302493617098
100.302492866638
100.302485236944
100.302474820616
100.302444114233
100.302431794511
100.3023791551
100.302369087764
100.302281424951
100.302246679774
100.302114525005
100.302021750202
100.301628733044
100.301285545245
100.300390123347
100.299475614536
100.297614290692
100.295330650616
100.292461534909
100.292423343122
100.288063090438
100.283038603609
100.259048364508
100.229971172028
100.169304741589
100.184674783291
100.189435755396
100.193313922376
100.193015705522
100.200768130096
100.197671270291
100.194648568157
100.196881239416
100.201835397513
100.200562418188
100.197584662416
100.207888177989
100.202211282097
100.20233099154
100.21055005886
100.203476094032
100.202102594327
100.210316499711
100.205716589145
100.199159327042
100.208188312617
100.204544434251
100.197423730574
100.205968332217
100.202772823337
100.195022695845
100.2068309005
100.208011430281
100.20536356571
100.204274743649
100.202023540136
100.200417731152
100.199978483351
100.200053516221
100.200050540779
100.200387432432
100.200642145112
100.200634929854
100.200284473037
100.200498565049
100.20065794708
100.200675468314
100.200487428596
100.20051546803
100.200894178384
100.200545293728
100.200376681554
100.200321993533
100.200496109118
100.200643080777
100.19994261495
100.199958552342
100.200603566247
100.200473408004
100.20029900831
100.200397721151
100.200556474111
100.200911624773
100.200523773519
100.200489243975
100.200676461564
100.200661301839
100.200507506405
100.200290794113
100.200640004964
100.200651568179
100.200393725476
100.200050928783
100.200048989932
100.199981226851
100.200426668845
100.201414233777
100.202518143316
100.202525365344
100.201400369613
100.201886168808
100.202884385961
100.202914107352
100.201911094692
100.202045075531
100.201775948739
100.201238647386
100.202023216261
100.202272945458
100.200762230085
100.201269503551
100.200946980356
100.201117445597
100.201552007753
100.200648227094
100.201333808752
100.201825457075
100.201934895859
100.202299593591
100.200958085353
100.201985742168
100.201144713768
100.201068119738
100.200689267964
100.201147322341
100.202838030061
100.201663362041
100.200472953344
100.201611523721
100.2015903817
100.200454156966
100.201138726845
100.200675690074
100.201055025161
100.201162303246
100.201973964979
100.200936070224
100.202297505698
100.20192031746
100.201809622251
100.201333353121
100.200637367378
100.201543407214
100.201111783378
100.200937091868
100.201259943426
100.20075079587
100.202257717821
100.202009551998
100.20122254677
100.201755758899
100.204064261662
100.203331680622
100.204462521767
100.201807766437
100.200135633595
100.204421058788
100.20347197348
100.202874923919
100.203577452235
100.201695282132
100.202781516248
100.200444407112
100.206283483397
100.205704980451
100.206007263766
100.202075557909
100.201207708952
100.201204235232
100.202073896915
100.204283598557
100.204090482255
100.20335924824
100.203600208174
100.202909972409
100.203498884208
100.203282789045
100.201093549912
100.202216296428
100.203419748461
100.204325373476
100.202463142413
100.202860858698
100.20363065394
100.204719324809
100.202264414171
100.201515962083
100.201970576365
100.202080519839
100.202014177365
100.201601271663
100.201766492083
100.202600389314
100.202598471951
100.201764192214
100.201579021459
100.202046768536
100.201961671106
100.202235267899
100.204758203055
100.203603469271
100.202832340516
100.202428719271
100.204339893267
100.203420086141
100.202202630091
100.201088041429
100.203287050594
100.202295346319
100.201070632357
100.202301939557
100.201430030394
100.202825413184
100.20112908152
100.200361574072
100.202655528076
100.203347253098
100.204130546041
100.20280529383
100.204432635182
100.202439283114
100.201569112792
100.203921160801
100.205372216893
100.206010647553
100.20382009348
100.205147914109
100.20127314526
100.202210926382
100.204569113362
100.203610572084
100.205824097307
100.205240439008
100.205950234293
100.203861538835
100.200047450103
100.202243952853
100.200535576454
100.198013404478
100.191413521041
100.192512601784
100.186010590735
100.191023622668
100.180241271052
100.173929885189
100.178313803979
100.181652278708
100.163172530565
100.238547013658
100.260221511888
100.225142998724
100.251282451093
100.270424895528
100.278473142148
100.284442482335
100.284072007395
100.279647341614
100.272860937076
100.281126087434
100.284791696431
100.287389304509
100.289628528506
100.287468015995
100.290847354276
100.292481217578
100.29397301773
100.29512547728
100.295008603084
100.293436650208
100.29197405638
100.291543592348
100.293080493682
100.294440838483
100.295051873519
100.297058768461
100.293637761706
100.29557578215
100.293263804198
100.292272779717
100.292021595679
100.291724308156
100.292785177449
100.290575305956
100.291140823757
100.291789894245
100.293124188566
100.290518779041
100.294756586474
100.294230846859
100.295218703927
100.296388075742
100.298325726268
100.297451229295
100.29620031282
100.295330481821
100.294214411688
100.292976837008
100.29190159467
100.290737875479
100.293273351813
100.292277484952
100.29195269345
100.292924656052
100.29138815565
100.292636080773
100.290816530304
100.301994718002
100.301449605885
100.300965144645
100.300081608329
100.298549660155
100.298792943508
100.302228160383
100.303289031777
100.301430809764
100.300316826526
100.300932981769
100.29556164321
100.295243093247
100.296099898183
100.298682737381
100.296937887169
100.300575213039
100.297776598379
100.29847844845
100.299046094069
100.298235319342
100.297559446037
100.296529761115
100.296410372364
100.296632384764
100.29573979583
100.294602339977
100.293463800231
100.292348559124
100.293361564111
100.292343014708
100.291134747926
100.29135349624
100.289809444614
100.290134774136
100.290471657394
100.29222936144
100.295471584691
100.295585610016
100.293680553794
100.294365212059
100.292598590231
100.302421026341
100.298078398007
100.298393548593
100.29905356157
100.300084498145
100.301969199908
100.299197051985
100.300982773287
100.301966832414
100.303465692557
100.30305727721
100.303752715107
100.302394559729
100.302001810109
100.30163646575
100.303232548012
100.302571261104
100.301395594944
100.301482346855
100.298727960208
100.300978889362
100.29917075033
100.298252423215
100.299486199905
100.298782416122
100.299293433156
100.298874628072
100.298987524445
100.298173680274
100.300732981093
100.301713343206
100.302592697327
100.303470570648
100.303557008505
100.303573868912
100.303349966871
100.303482956963
100.303000350294
100.302989957993
100.302757057914
100.302265944978
100.301774360345
100.301110623922
100.300527258658
100.300055293587
100.299799830937
100.300407560375
100.302182365582
100.302493254098
100.302377949976
100.302368098456
100.302367633123
100.302498532512
100.302498553909
100.302490201831
100.302485283716
100.302472101459
100.30244537658
100.3024271599
100.302377398304
100.302353409953
100.302258558466
100.302192148722
100.302037873401
100.30190997963
100.30150475344
100.301088822396
100.300231414282
100.299337465288
100.297565610484
100.29544027415
100.292693974753
100.288769347547
100.283941906919
100.264131973918
100.259419087972
100.230482321908
100.169337991218
100.184844023545
100.189508525385
100.193388707052
100.193101351576
100.200852204588
100.200768314976
100.197781219108
100.208118049594
100.202246268806
100.202426989003
100.210639680518
100.203550866878
100.202190129743
100.210423644502
100.205828860169
100.199254050626
100.208226981578
100.204614997556
100.197448163375
100.206001534758
100.202815958544
100.19503593676
100.206318727433
100.205718464728
100.20608807037
100.206311116034
100.205406609376
100.208081001991
100.201841587803
100.204483932403
100.20219490192
100.204451916414
100.200184605974
100.201094816491
100.202297938514
100.20363716426
100.204315631788
100.202939932559
100.202341253429
100.200779381848
100.201416351642