/*--------------------------------*- C++ -*----------------------------------*\
| =========                 |                                                 |
| \\      /  F ield         | OpenFOAM: The Open Source CFD Toolbox           |
|  \\    /   O peration     | Version:  v1612+                                |
|   \\  /    A nd           | Web:      www.OpenFOAM.com                      |
|    \\/     M anipulation  |                                                 |
\*---------------------------------------------------------------------------*/
FoamFile
{
    version     2.0;
    format      ascii;
    class       volScalarField;
    location    "1.8";
    object      p;
}
// * * * * * * * * * * * * * * * * * * * * * * * * * * * * * * * * * * * * * //

dimensions      [0 2 -2 0 0 0 0];

internalField   nonuniform List<scalar> 
74874
(
100.129022579425
100.131406762943
100.131880133527
100.13046992204
100.135985118887
100.136571509419
100.133413647978
100.135021979451
100.137539003115
100.137612655128
100.135500187714
100.133964089029
100.137247771473
100.136697754963
100.137709130806
100.13789253717
100.137273908882
100.134135198579
100.131226192975
100.130656612728
100.132131028019
100.133448175579
100.131929634154
100.131579982232
100.137021219733
100.137157137877
100.13255644898
100.132822071885
100.133984818021
100.132163501855
100.132301008702
100.133799183676
100.132803973923
100.132503806875
100.13709002155
100.136592203913
100.131490139308
100.131906321498
100.133348341068
100.13176905675
100.130337999952
100.130863454183
100.133769976554
100.136916345352
100.137363881594
100.137121753836
100.130978700994
100.130238340649
100.129844288256
100.129278165673
100.128265406607
100.128270716828
100.12755577633
100.127903437609
100.128170412672
100.128727199974
100.129927950873
100.129416429635
100.127808818637
100.12752149905
100.127254440378
100.126801339844
100.126845695558
100.127383580898
100.127544574767
100.127880258945
100.129433246628
100.12996697208
100.128842764857
100.128325899816
100.128193867933
100.12785627053
100.128517986437
100.128527943073
100.129516240308
100.130132991889
100.130610169432
100.131388570062
100.130932740078
100.132503064953
100.1321115412
100.133254115246
100.133513485781
100.133298352467
100.13273121071
100.132249978956
100.131753183157
100.128597053718
100.126922029626
100.128952958656
100.127914344062
100.124222370069
100.125171317071
100.127783274524
100.127480866957
100.125737415113
100.123979063962
100.125561391432
100.127124099177
100.126474630306
100.125798598077
100.125382568761
100.12356246749
100.122497694203
100.123694395333
100.123638829603
100.122377277954
100.123515535362
100.125495386153
100.12597823998
100.126324704725
100.127332932735
100.126105892569
100.124459219081
100.126102042853
100.127741042025
100.128017833607
100.125347360285
100.124439849428
100.12832347106
100.12937730749
100.127437911613
100.129417068801
100.132978927178
100.13320245349
100.130791192149
100.130555094141
100.124135954548
100.132286414332
100.131879759692
100.126449260954
100.123975119084
100.1286130118
100.128985612861
100.123314772798
100.123548641044
100.126448008371
100.12485467552
100.123682115874
100.121686538058
100.12457331521
100.127149137857
100.123388533627
100.122831659906
100.125070520815
100.121445542696
100.119097730081
100.121282199683
100.121247369992
100.119035877417
100.121417941787
100.125181742681
100.12320400497
100.124052229766
100.128114163906
100.125556830891
100.122264861939
100.124098138698
100.125158837944
100.126733510382
100.123758337436
100.123477453159
100.129560863961
100.129083611735
100.124675818715
100.127706084069
100.13449735591
100.135375621398
100.125071386871
100.152206923446
100.150164925066
100.122745537351
100.122608681586
100.127936149381
100.117477199447
100.119010724804
100.130063221304
100.126436551443
100.123584144202
100.123514294366
100.128420285494
100.117993885875
100.119138993571
100.119396940332
100.119149173149
100.125972808
100.122237095164
100.122201408254
100.125835248627
100.119277746504
100.119546084937
100.119314804843
100.117906638042
100.116357434525
100.119298627059
100.117055380074
100.108416722574
100.111019618851
100.082793642635
100.07890548256
100.079268956812
100.085038612224
100.11626506263
100.110582531873
100.09353890441
100.086549122281
100.080228401893
100.080982729601
100.085959130489
100.08294169643
100.083907442861
100.087204440277
100.087191802133
100.083858912399
100.082925162374
100.085595053576
100.08477560324
100.078570817066
100.077300277823
100.08182901688
100.079871587028
100.079702696269
100.07870244757
100.078727876977
100.084953007859
100.084158351649
100.084473826292
100.084859408839
100.080125305953
100.080698308161
100.082046240648
100.082021730767
100.08068008489
100.079915177544
100.08090627635
100.080131863147
100.07865067947
100.078683442266
100.085478932596
100.084541268956
100.08420338519
100.084971213858
100.08624959258
100.086192925723
100.085574063239
100.085752814319
100.08600663078
100.086039398361
100.085132409834
100.084850270952
100.084841397333
100.085023078319
100.084663521867
100.084433897738
100.084091585303
100.085015629817
100.086125880536
100.086435753793
100.085691415132
100.085586511249
100.083861051604
100.084149374166
100.084130206974
100.083924600246
100.084078400173
100.084077790067
100.084107023544
100.083970568551
100.085688112684
100.085661680457
100.08590479657
100.085826452082
100.085661330223
100.085500595753
100.083795885239
100.083981359078
100.084122247816
100.083837395127
100.081515295207
100.081566944518
100.081679690419
100.081707761675
100.081622518269
100.081739574645
100.081689879111
100.081739590673
100.081691236023
100.081676955804
100.083950464959
100.084023390486
100.083953386901
100.083956967321
100.081632275537
100.081481551376
100.081562531111
100.08157736929
100.079577427844
100.079565737988
100.079617791029
100.07967689185
100.079736024257
100.079661002081
100.079747856411
100.079716366176
100.079765021397
100.079730056523
100.079718339055
100.079739612201
100.081701277751
100.081606155602
100.079651226858
100.079668567323
100.079557225643
100.079628792745
100.077893744046
100.077852466848
100.077800674756
100.077832234301
100.077875307558
100.077953501551
100.077896847458
100.07797753113
100.077956263275
100.078004484216
100.077985773788
100.07798144788
100.077991587064
100.077906877386
100.077921751921
100.077842895362
100.076040697322
100.076042776274
100.076000247773
100.075899184787
100.075916712201
100.075962012102
100.076065541012
100.076035802776
100.076127544232
100.076107319652
100.076177041492
100.076190252362
100.076196759408
100.076193376364
100.076095339389
100.076107505953
100.074029542402
100.073952163158
100.07392005104
100.073867740241
100.073620927911
100.073632317213
100.073779802685
100.073890450665
100.073869522538
100.073988592388
100.073989632931
100.074094598319
100.074148127737
100.074203397428
100.074189487799
100.074074950489
100.071513117071
100.071428712523
100.071311271695
100.071284740005
100.071222872886
100.070626316815
100.070591376162
100.071018620202
100.071121001281
100.07113499769
100.071287756235
100.071356684612
100.071548766886
100.07161218381
100.071692089329
100.071635721308
100.067811438283
100.067634833123
100.067631629175
100.06741686236
100.067220095894
100.067418873791
100.066182777286
100.06603841688
100.06696751143
100.066848191889
100.067009542601
100.067276729959
100.067319395469
100.067682865621
100.067862365854
100.06791824528
100.061845914523
100.061689281969
100.061380550814
100.061501245061
100.061353160396
100.060468171735
100.061350908656
100.058827199503
100.058701399747
100.060661197654
100.059764590242
100.0604815232
100.060752360655
100.060750855421
100.061290886167
100.061676957156
100.039378182022
100.039588687681
100.036327208697
100.036038050756
100.039667011418
100.040244482973
100.035482283257
100.035950876553
100.03586714134
100.035772869464
100.035321414253
100.034220238613
100.039061489959
100.038727768024
100.035477614712
100.035916224727
100.041745090058
100.044549163841
100.044629255067
100.042489813013
100.04227277831
100.0439141738
100.046134562844
100.039921995634
100.026751082976
100.069130163583
100.104776367557
100.1044513682
100.067986256375
100.035187553159
100.035405059904
100.17402510596
100.298542463963
100.224005066855
100.222035656555
100.175221232631
100.159855334244
100.145237129181
100.038906817586
100.045444343238
100.043637564758
100.041658761952
100.15103043706
100.151688019147
100.190479748596
100.129426480047
100.130164331246
100.191852668477
100.152964469181
100.151778246191
100.18815378784
100.125107267462
100.122875646127
100.178995400585
100.145582015103
100.162785857441
100.177810981908
100.297822168078
100.367884119775
100.346230154674
100.342946910809
100.36171403699
100.340023039703
100.293582290193
100.459015126258
100.485258391419
100.49233043307
100.526226816935
100.596384482637
100.600595076938
100.521367818244
100.454391214049
100.387971825042
100.350058320963
100.374049575087
100.372560355697
100.369483890556
100.369575393815
100.370488602122
100.371469125025
100.372737340898
100.374552531265
100.376907480746
100.379648351059
100.38251285273
100.385048759271
100.386659877795
100.385430879503
100.383729701603
100.381717035052
100.379517888985
100.377301063359
100.375078153199
100.372843815073
100.370737950173
100.368914907157
100.367451777301
100.366338528658
100.365482809693
100.36479442705
100.364242634958
100.363818646117
100.363509562706
100.363300878333
100.363238315351
100.363465465283
100.364280155916
100.365914602898
100.367884438684
100.369849207836
100.371657171707
100.372715288852
100.372637231961
100.372606598276
100.372000214357
100.371429783118
100.369571392791
100.36759148162
100.365743062961
100.364280905684
100.363520519944
100.363252944637
100.363235787536
100.363390197851
100.36369575398
100.364139416324
100.364698989383
100.365374401364
100.366194705524
100.367243243814
100.368610036056
100.370313947394
100.372298637289
100.374417313138
100.376510800529
100.378541720905
100.380497627344
100.382258513552
100.383766970422
100.384867528447
100.385408542972
100.387266640594
100.388528349429
100.387882779405
100.386575541792
100.384749360062
100.382566384848
100.380187742837
100.377805858538
100.375462431615
100.373159718755
100.370993249014
100.369102971363
100.367568236983
100.36639540601
100.365499151615
100.364798478117
100.364252831956
100.363854846588
100.363564018019
100.363349907802
100.363271962
100.363532242405
100.364440260544
100.366201474876
100.368256780867
100.370221317203
100.371940231192
100.372912145463
100.372816337172
100.373112882882
100.373353089706
100.373347655331
100.3735234692
100.373433398065
100.373595998593
100.373506480392
100.373680760264
100.37363032371
100.373688836052
100.373553685064
100.37351172117
100.37337387202
100.373215928551
100.373229010303
100.373141893582
100.373390363771
100.373541546283
100.373498388808
100.373558318822
100.373414085392
100.37349694888
100.37334481354
100.373438014474
100.37326473691
100.373263674509
100.373029870729
100.372920761345
100.373168746117
100.373179180632
100.373346143051
100.373261594648
100.373400850446
100.373345347885
100.373459834107
100.373383797574
100.373373024389
100.373213049398
100.37318460672
100.373115215419
100.373171815611
100.373068169543
100.373203067121
100.373299817197
100.373321339089
100.373231222583
100.373313620438
100.373184471761
100.373268983762
100.37310378867
100.373088362133
100.372826140993
100.372706990947
100.37294730668
100.372987076339
100.373156124767
100.373107694795
100.373190532018
100.373222422299
100.373113168225
100.373302367996
100.373356524437
100.37341587611
100.373508857731
100.373621263006
100.373751593586
100.373631780873
100.373835565425
100.373792862721
100.373871175378
100.373740446096
100.373717753929
100.37354880602
100.373291817348
100.373019551614
100.372823679004
100.372640981911
100.3724511984
100.37229130395
100.372347365829
100.372446647147
100.372686336424
100.372867333724
100.373066586034
100.373348946619
100.373164897744
100.372993891573
100.372905930725
100.372996527765
100.372945822577
100.372640119258
100.372401210455
100.372306044362
100.372198432774
100.372344984063
100.372367750565
100.37257095199
100.372877411788
100.372988984844
100.373078199962
100.373169416505
100.373220138005
100.373302042796
100.373377943035
100.373451645764
100.373561939297
100.373703985102
100.373859647259
100.373923145263
100.374010927166
100.373861363165
100.373856619815
100.373641781169
100.373478741161
100.373239254449
100.372843608412
100.372434439756
100.372079325091
100.371934765421
100.371688118191
100.371675010355
100.37196031169
100.372304306329
100.372677856469
100.372433174864
100.372110736747
100.371822324817
100.371619389211
100.371413771054
100.371194344955
100.37103172416
100.37117757371
100.371341112391
100.371629915885
100.371821139511
100.371920808074
100.371688311914
100.371838634439
100.372212722348
100.372194435128
100.37257716371
100.37277022511
100.373094504036
100.373248962097
100.373277875549
100.373353846489
100.373440412531
100.37353553376
100.373448325854
100.373634809579
100.373537977365
100.373725886541
100.373849687416
100.373755499308
100.373967154241
100.37412591319
100.374124480513
100.374230226876
100.374147796555
100.373947821063
100.373986924443
100.373935268518
100.37409676774
100.374026373695
100.374127026425
100.374020998194
100.374038776668
100.373883291775
100.374007266925
100.374257007571
100.374251787853
100.374366270455
100.374335772162
100.374198259169
100.374154045734
100.37374730384
100.373588474437
100.373438881727
100.373088826531
100.372649831094
100.37227556845
100.371691650916
100.371472785046
100.371228036048
100.371022801302
100.370827340004
100.370631757525
100.37034212117
100.370030005184
100.369940217571
100.370245729598
100.370642253911
100.370880614039
100.371082262035
100.371288966593
100.371467295644
100.371208413803
100.371362750249
100.371207378519
100.371505721021
100.37193025793
100.373053701731
100.373343974415
100.373331559004
100.373570987769
100.373559783401
100.373747371377
100.373645409031
100.373772495226
100.373979467958
100.374101876393
100.374239389631
100.374153482116
100.374409524397
100.37441045063
100.37452611663
100.374483849013
100.374333078568
100.374285631559
100.373921581505
100.373746631606
100.37339824851
100.372999537041
100.372637665129
100.3724547923
100.371890911169
100.37169698555
100.371513613297
100.371380782631
100.371380442305
100.371091647899
100.370824914201
100.370635156701
100.370292618958
100.370507292072
100.370827511427
100.371103462154
100.371264992495
100.371002558921
100.370741641527
100.370384720806
100.370389298765
100.369977920705
100.36958418361
100.369269572972
100.369018256874
100.368813326264
100.369064105394
100.369419045775
100.36975165218
100.370092340982
100.369836892888
100.370013136696
100.370151247481
100.370397751545
100.370522935906
100.371099083445
100.371618401715
100.372826082492
100.373124138235
100.373245366985
100.373229553886
100.37346209553
100.373477906051
100.373584798391
100.373721781147
100.373704874372
100.373686121398
100.373881352832
100.374002200635
100.373893462798
100.374017673788
100.374135861017
100.374350578793
100.374271983844
100.374524473759
100.374521946943
100.374644459668
100.374596331735
100.374496140313
100.374397707583
100.374096214189
100.373891184287
100.373497932627
100.373087563837
100.3727585105
100.372231027415
100.372087911824
100.371920779943
100.371754245153
100.371638011708
100.371658917926
100.37153443594
100.371758521666
100.371468873166
100.371171010968
100.370873931151
100.370548350477
100.370192537807
100.369786663596
100.369392667187
100.368893280067
100.369199757469
100.36968836203
100.370132830133
100.370377171646
100.370645471395
100.37094443162
100.371242850743
100.371250877236
100.371113627907
100.370751326501
100.370047028418
100.370088134689
100.369926593558
100.36938036106
100.368884832854
100.367563091639
100.368035383283
100.36876689981
100.369453088183
100.370115376853
100.370416849787
100.370313620046
100.369932644047
100.369306120946
100.368584273582
100.367519014015
100.366375954956
100.365538756411
100.363399400828
100.361894827425
100.363765103563
100.365040702253
100.366090223565
100.36730502569
100.367090717395
100.3656800202
100.364696913765
100.363122531776
100.361366191356
100.360485236734
100.360416175692
100.361746942083
100.363654186697
100.36500919648
100.365660343268
100.366757227829
100.367380178583
100.368219357497
100.369244507097
100.369963025772
100.370678097334
100.371293451033
100.37065095711
100.370910544103
100.370708989742
100.37152476678
100.371024554533
100.370452968032
100.369857865257
100.369215108838
100.368588849835
100.367837326464
100.366623338475
100.365955404422
100.364678445853
100.364614306626
100.364189649592
100.362566159451
100.361869753772
100.360925165621
100.355594111879
100.356796898522
100.356944159293
100.358969924023
100.359962900854
100.363761999355
100.365003706564
100.368072991963
100.368775050221
100.3708554986
100.370052495501
100.368936914579
100.368873740061
100.368879766873
100.368942198673
100.369351495799
100.368603562048
100.367006320495
100.366638486185
100.366566242619
100.366660599859
100.368735312315
100.370767290562
100.370736239683
100.371544969576
100.3720762195
100.372103620833
100.372519570979
100.372277583513
100.3724562931
100.372522562349
100.372597747324
100.37254370196
100.37243715846
100.37225403659
100.37173216246
100.371484080231
100.371705744006
100.371821626066
100.371766917132
100.371984812448
100.371973902637
100.372063964504
100.372388984856
100.372431396798
100.372611502576
100.37228527224
100.372506947754
100.372572042915
100.372200695937
100.372405740254
100.372067454741
100.372040734309
100.371543632318
100.371418813116
100.371939962462
100.371985031626
100.372291444348
100.372158439418
100.372458830401
100.372253485657
100.372493505915
100.372320597211
100.372284924381
100.372207898702
100.372291378491
100.372386179105
100.372266203997
100.372180504099
100.37206589283
100.371741295764
100.371253656314
100.370824516531
100.371178115403
100.371306028443
100.37160249368
100.371572732624
100.371974795504
100.37208204727
100.372234803431
100.37192763632
100.372152513323
100.372251325737
100.372040969789
100.372154664205
100.371761235727
100.371833352423
100.371555182594
100.370900763739
100.370687818329
100.369856540805
100.370022125278
100.370121177843
100.371055796193
100.371553405873
100.371594774947
100.371999420582
100.371758918335
100.372166921044
100.37207876305
100.37187310624
100.372104809376
100.371942776906
100.371747966717
100.371626019583
100.371818783585
100.37189669022
100.372001957483
100.37188731782
100.371803148496
100.371619024443
100.371278441617
100.370630596618
100.369896236529
100.370479231962
100.37065812254
100.37104853922
100.371095445132
100.371518865395
100.37170534782
100.37181735169
100.371512437331
100.371798126646
100.371855671225
100.371708734417
100.371756349742
100.371898745228
100.371479123486
100.371536931791
100.371148794043
100.370366733274
100.370421724481
100.371195023456
100.371237194291
100.371799110529
100.371543887826
100.371675907309
100.371758778312
100.371765936473
100.371820489359
100.371858989475
100.372020793325
100.370369872075
100.371327209446
100.371376924034
100.371633372757
100.372140766194
100.372296157957
100.372290360127
100.372565647177
100.372521218106
100.372634065817
100.372728755279
100.372591005754
100.372681525994
100.372503814689
100.37249172937
100.3725990705
100.372649616181
100.372686467427
100.372776444082
100.372792330943
100.372764671308
100.372457248212
100.37236042793
100.372480041211
100.372318907391
100.371930597964
100.37161497781
100.370896260728
100.37025982753
100.369663666988
100.36995184585
100.37021992022
100.370204892636
100.370181717019
100.37061159264
100.370719939226
100.370834414395
100.370751971482
100.370387219503
100.370774317443
100.371074276062
100.371393310915
100.371809190477
100.372098369736
100.372251505307
100.372290884
100.372332887857
100.372362460171
100.372417359171
100.372652310764
100.372587457336
100.372800908546
100.372684910026
100.372876522873
100.373012953535
100.372895343328
100.372855358588
100.372552770874
100.372420617818
100.372144050436
100.371695330138
100.371227955691
100.371177148523
100.371412297661
100.371484655643
100.372081966544
100.371694843436
100.371865733542
100.372253826862
100.372403296666
100.372632900583
100.372649387677
100.37275161419
100.372650491529
100.3729320007
100.372793335157
100.372818231846
100.373071709413
100.3729671285
100.372916165946
100.372738673628
100.37257601288
100.372837199878
100.372930132384
100.373036080519
100.373098805384
100.373126301946
100.373093948149
100.372988911093
100.373025610521
100.37280275454
100.372787879592
100.372636731111
100.372280181928
100.372262914722
100.371730789364
100.371283313472
100.371204394448
100.370937250018
100.370854856367
100.370826670136
100.370768446898
100.371655427043
100.372187641247
100.372245699331
100.372465823799
100.372477968444
100.372760834426
100.372890795842
100.372682314776
100.373046490239
100.373015244969
100.373112857803
100.373172524162
100.373249523471
100.373304793814
100.373382915852
100.37345999209
100.373577921306
100.373680209873
100.373818341774
100.373932835874
100.374075198763
100.374188454712
100.374309673126
100.374249907738
100.37445106722
100.374375474724
100.37462072528
100.37462854113
100.374762023194
100.374683725735
100.374654191908
100.374545635741
100.374530248732
100.374315007308
100.374041220924
100.373618970861
100.373223252014
100.372916802147
100.372414590175
100.372306699609
100.372152592822
100.372106379873
100.372101763086
100.371856953994
100.371750889358
100.37198317795
100.371987990521
100.372044473866
100.372122946747
100.371883294966
100.371643536846
100.371391735339
100.371103698495
100.370782697248
100.370317144168
100.370598985262
100.370987366218
100.371269558645
100.3715352471
100.371793897834
100.371747097223
100.371464488601
100.371184690745
100.370892538835
100.370506466112
100.369996213462
100.370330437117
100.369835002761
100.369320548304
100.36883987335
100.368426083656
100.367749196476
100.36815750224
100.36874583509
100.36911906584
100.369570684402
100.369532355854
100.369394004751
100.369112996487
100.369022475577
100.369064217952
100.369354742426
100.369024935045
100.369529611229
100.371483705386
100.371844440394
100.372222794868
100.372269627673
100.373165696884
100.373043413219
100.373477583058
100.373600906641
100.37382589642
100.373812640397
100.373944016797
100.37412633269
100.374239322364
100.37435416688
100.374443350387
100.374349715072
100.374535098866
100.374481621532
100.374701004921
100.374708475127
100.374819393337
100.374730173419
100.374712212676
100.374600255027
100.374357364791
100.374158023544
100.373741786244
100.373409775428
100.373093385482
100.372636476243
100.372500411333
100.372209510315
100.372324675096
100.372134259743
100.372269698031
100.372275099951
100.372411545891
100.372184318683
100.372198972093
100.372309601233
100.372374422471
100.3723310782
100.372408353042
100.3721627831
100.371934016397
100.371690160766
100.371409126015
100.371105945456
100.370757251014
100.370314025075
100.369900402996
100.36948568968
100.369884077812
100.370325547358
100.370603574482
100.370974336661
100.371286493358
100.371562188296
100.371813488834
100.372065280238
100.372079530135
100.371997721935
100.371535030071
100.371942948656
100.371417696733
100.370954188215
100.371419537374
100.370976489139
100.371182743698
100.370850157471
100.371915707847
100.370778299968
100.370177147954
100.369343930388
100.368429092652
100.367701093514
100.367171056505
100.366823138461
100.366323308998
100.365733094749
100.364220722446
100.364119892579
100.363470587187
100.363109576403
100.361890198493
100.360835827635
100.36038854638
100.360230441039
100.354178314069
100.354827766598
100.35369597972
100.354307856797
100.354107873469
100.35560483873
100.356460443475
100.355605624579
100.354253948773
100.355715327977
100.355200453175
100.355575345209
100.356388833452
100.356460037478
100.355407456272
100.355556138501
100.358839309904
100.354142277446
100.35382164266
100.355849255326
100.355849880835
100.356148543479
100.357656923176
100.358980070536
100.359964162288
100.359896239682
100.358043186903
100.359047942215
100.360408777207
100.35928383337
100.35776569717
100.357912712649
100.359776325572
100.361236777783
100.363171644077
100.364668659355
100.365318122071
100.363656966181
100.365022809796
100.36652779624
100.366960783322
100.368399909463
100.367721567533
100.368843924857
100.369743572523
100.370542362614
100.371166668187
100.371736884381
100.371889405303
100.372145691825
100.371966914027
100.371194526688
100.371572289236
100.371443991446
100.372178506864
100.371253492357
100.368745541596
100.36818480461
100.367443727181
100.366613918749
100.365870435467
100.365364660934
100.364989968183
100.364724714058
100.364563197808
100.363590316636
100.363303957787
100.363356914692
100.363440225525
100.363579126406
100.363234912056
100.362945875272
100.364056553713
100.364435525877
100.365467591479
100.366963082855
100.368962000204
100.369335948096
100.367303592264
100.365614050568
100.364358613177
100.363691587546
100.363385306857
100.363299413224
100.363383373214
100.363638389959
100.364051646121
100.364588958381
100.365225102281
100.365980827459
100.366923154868
100.36813402634
100.369663230873
100.371494424649
100.373512284409
100.375521480819
100.377358987184
100.37901259485
100.380479833001
100.381746203051
100.382689046779
100.38315727289
100.383118580336
100.385380375835
100.387249799785
100.388520304523
100.389089709775
100.389092691142
100.388428157949
100.387081479713
100.385189515074
100.382923054076
100.380447131077
100.377971786155
100.375561906499
100.37322894523
100.371039976934
100.369124157676
100.367554603615
100.366343205168
100.365419308988
100.364699900128
100.364149826317
100.363773006713
100.363528157849
100.363371230745
100.363374686059
100.363739702382
100.3647774711
100.366643560112
100.36874930778
100.37065643416
100.371171060533
100.372651453002
100.373471064776
100.373330407087
100.373606614026
100.37332437625
100.373839740869
100.373981051312
100.373963991513
100.37408337062
100.374070092153
100.374189388779
100.374298752781
100.374390894938
100.374521665925
100.374438784847
100.374609586159
100.374572347761
100.374761570466
100.374775054474
100.374866764896
100.374794611514
100.374772856116
100.374666275426
100.374426312252
100.374241053182
100.373749889786
100.373554299196
100.373329409733
100.373178093054
100.372920354553
100.372751565493
100.372475556499
100.372520750382
100.372476396972
100.372505978675
100.37261172432
100.37253766324
100.372764995571
100.372597647857
100.372342652251
100.372533538801
100.372572262718
100.37260497917
100.372678025962
100.372480993858
100.372441499571
100.372108047334
100.371852350027
100.371599627877
100.371293174456
100.370968568307
100.370581082292
100.370315575836
100.370531982324
100.370927800254
100.371248922415
100.371559601839
100.371809991785
100.372065058343
100.372334063736
100.372319581127
100.372390353297
100.372306836238
100.372124063719
100.372305061976
100.372107716529
100.372360017042
100.371897167064
100.372340071053
100.371941214954
100.371615900283
100.371855048191
100.371967337445
100.371792269441
100.372421356477
100.371717058536
100.369322856372
100.36744218582
100.366190169501
100.365455144021
100.364927406287
100.364409192836
100.364067471975
100.363807252032
100.363660236494
100.363471273054
100.36333046557
100.363234326902
100.363159671918
100.363172978294
100.362875014052
100.363174090359
100.363321496718
100.363511034603
100.363429764566
100.363423919087
100.363571966481
100.363673419559
100.363661305788
100.363380812106
100.36372326264
100.363503860662
100.36325142517
100.362394310326
100.361130353052
100.361035583154
100.360018757276
100.359986145524
100.354729209472
100.35511890451
100.354908766461
100.356379275452
100.35635168692
100.357788622626
100.358719411418
100.357932548478
100.357174293026
100.357807655741
100.358106813267
100.358074318224
100.35842343795
100.358863598636
100.358027995598
100.360548392854
100.360425620345
100.358713354631
100.360474030371
100.360485278786
100.356888657122
100.356606196925
100.355191919918
100.358696272234
100.361085976265
100.364286678174
100.367080072555
100.368540939514
100.369138410941
100.370245927895
100.370961255069
100.371154569405
100.371105097653
100.37154414398
100.371395619226
100.371659708795
100.371674982814
100.371459332177
100.371634466327
100.371359700425
100.371079425444
100.37136162374
100.371515544537
100.371410112759
100.371147810428
100.370721740699
100.370121502463
100.370793108402
100.370834485731
100.371192046149
100.371155141145
100.371390651767
100.371594538562
100.371630810661
100.371347681463
100.371596767396
100.371645751945
100.371231850272
100.371424157669
100.371537094184
100.371079422638
100.371093564445
100.370568397839
100.369690465254
100.368590367936
100.368094413458
100.366284277213
100.367910958395
100.367769569019
100.368958296421
100.369886988236
100.370801244356
100.371232094867
100.371216562993
100.371597193146
100.371437577159
100.371831771577
100.371620629694
100.371639827973
100.37169760032
100.371649806228
100.371611786031
100.371498704287
100.370394541513
100.371254554161
100.371435794802
100.37046339145
100.367917899347
100.369071411302
100.369392143274
100.370693801587
100.371336746855
100.371367930941
100.3708193229
100.368281802748
100.369631855789
100.370079858345
100.370990343526
100.371420137875
100.371105350799
100.370877721639
100.370714718365
100.370249272127
100.368998267657
100.369988949761
100.371061686108
100.371138540881
100.371192930309
100.369596128601
100.370387724355
100.370582231309
100.371307094585
100.37180109762
100.371896346757
100.371933020263
100.372002346956
100.37204680079
100.37196495023