/*--------------------------------*- C++ -*----------------------------------*\
| =========                 |                                                 |
| \\      /  F ield         | OpenFOAM: The Open Source CFD Toolbox           |
|  \\    /   O peration     | Version:  v1612+                                |
|   \\  /    A nd           | Web:      www.OpenFOAM.com                      |
|    \\/     M anipulation  |                                                 |
\*---------------------------------------------------------------------------*/
FoamFile
{
    version     2.0;
    format      ascii;
    class       volScalarField;
    location    "1.3";
    object      p;
}
// * * * * * * * * * * * * * * * * * * * * * * * * * * * * * * * * * * * * * //

dimensions      [0 2 -2 0 0 0 0];

internalField   nonuniform List<scalar> 
79506
(
100.12261237175
100.124697805136
100.120930391375
100.125473758698
100.132429120674
100.132668946288
100.130728512859
100.131335506319
100.131724939441
100.131898487024
100.132293218297
100.13191503611
100.133595194106
100.133034321887
100.135162669018
100.135188366514
100.133126711178
100.130246723704
100.127035218006
100.126654195331
100.126755849238
100.128517594088
100.126104398347
100.127299976927
100.129241791775
100.134076899807
100.128678929125
100.127666558312
100.12691104149
100.126556541368
100.126649702412
100.126714376312
100.12754278675
100.128501554869
100.133986560759
100.129001168625
100.127017248742
100.125760291972
100.128141134146
100.126348205956
100.126285082627
100.126673018323
100.129897281709
100.132819269033
100.134770973498
100.134645455101
100.127997659547
100.126804880823
100.123417106537
100.123924743809
100.124453263389
100.124293443307
100.12438582573
100.124393524009
100.122151711579
100.125379652795
100.129071091594
100.127587876138
100.12420360408
100.123261296394
100.122236431032
100.123082526116
100.123165990357
100.122503474821
100.123383966094
100.124391375681
100.127894518797
100.129367826898
100.125646609868
100.122432329671
100.124730773252
100.12475315363
100.124602675414
100.124726225384
100.124094581082
100.123591061383
100.127117356525
100.128366486018
100.125952379695
100.129269900341
100.132445340631
100.13424256074
100.132256544828
100.1316961178
100.132765864404
100.130914240392
100.128432413165
100.124241820592
100.129693635562
100.118109155749
100.106893994376
100.113073564416
100.114688455765
100.123949080762
100.118105743879
100.119252115473
100.121973897981
100.121291845451
100.120794250244
100.120822038381
100.120789325304
100.125369252552
100.12617246743
100.121640223465
100.122002173307
100.119469484594
100.1182840979
100.119178723238
100.119190919028
100.118315965253
100.11958054511
100.12221528852
100.121920410165
100.126456273172
100.125666312331
100.121074690999
100.1211817367
100.12116880732
100.121611134765
100.12227148353
100.119443310888
100.118225910821
100.124397560827
100.124875400729
100.121429366621
100.125277294684
100.131797569807
100.137013774979
100.130459970412
100.129926006441
100.134475571117
100.149940043524
100.118826245654
100.119336964249
100.104306881016
100.077655146651
100.078510743858
100.074199970888
100.074907988025
100.081102105885
100.11133177987
100.121596784567
100.118700419833
100.118460656789
100.122610138214
100.128825665146
100.112105153877
100.112663451639
100.114082441721
100.12342237982
100.118475728445
100.118499954865
100.123541207167
100.114090331387
100.112796389534
100.112297167149
100.11088485228
100.111611180447
100.115140140617
100.112950365107
100.073033462399
100.075088617598
100.076384002634
100.07613432512
100.07505894397
100.075110022929
100.077008978209
100.077436238935
100.081548921104
100.110683682938
100.105830967398
100.089514703473
100.083735124475
100.08366246853
100.080974930563
100.081766187606
100.076272691308
100.076381201984
100.078525174636
100.082258287944
100.082168071893
100.07836067435
100.076223661066
100.081578695174
100.080795010461
100.074423805674
100.075031645823
100.081552182736
100.08200895084
100.081148366044
100.080843032549
100.081715563822
100.081582995043
100.080849547778
100.082081407028
100.082161959433
100.082637066197
100.082711068145
100.08206489438
100.077278570737
100.078088031228
100.078058344736
100.07724419566
100.076240487982
100.077190240682
100.076738142018
100.080667448733
100.081946771422
100.082576984281
100.082863578173
100.082169743083
100.082115465008
100.08283130499
100.082744193406
100.080609906192
100.080405133395
100.080493084318
100.080575645816
100.080643174864
100.080507617085
100.082333318764
100.081428325138
100.081416307364
100.082007629039
100.081559362057
100.080759418703
100.081974796638
100.080292987525
100.080200537465
100.080358644971
100.080459534153
100.080271910369
100.080321735309
100.080626350242
100.078193119115
100.07820682639
100.078153498162
100.078227996271
100.078210335938
100.078256453421
100.078187898848
100.078150216871
100.080467493614
100.082303024237
100.082632466659
100.082473693745
100.080404207136
100.07802739919
100.078011329466
100.077909269886
100.077955258344
100.077998034385
100.077976938472
100.078044129409
100.076155145612
100.076274480382
100.076292017017
100.076238986729
100.076299528573
100.076282794412
100.076303882581
100.076233097813
100.076196941199
100.076196503866
100.078152559232
100.080528747954
100.080936403489
100.078332429773
100.076325237931
100.076099516744
100.076077532605
100.076014506982
100.076077866388
100.076116979402
100.076087551487
100.074381285713
100.074455440094
100.074559842468
100.074569370341
100.074514652733
100.074573678409
100.074557889721
100.074564879377
100.074495063596
100.074460201022
100.07445788145
100.07437947935
100.074361991139
100.074325621313
100.074380075898
100.074403177603
100.072655714982
100.072631127499
100.072705489883
100.072807679311
100.072795527637
100.07275285622
100.072825198233
100.072808549012
100.072812656987
100.072755517816
100.072723676984
100.072715231227
100.072645338368
100.072633507832
100.072611326905
100.072648295162
100.070875963097
100.070948067348
100.070806457457
100.070800428239
100.070986309232
100.070966127516
100.070930618784
100.071020990672
100.07100971578
100.071020397525
100.070977294654
100.070949808564
100.070933950215
100.070869172593
100.070856466156
100.070841016889
100.069035559132
100.069028651716
100.069134899668
100.068832619755
100.06871779433
100.068996883429
100.069068477457
100.069092262962
100.06920538722
100.069203592638
100.069222590672
100.069193871934
100.069170411072
100.069148060086
100.069088429965
100.069063635268
100.067258327015
100.067194845226
100.067119943014
100.067094948586
100.067293335767
100.067217062743
100.067009879843
100.067194745612
100.067274473945
100.067403624977
100.067424394884
100.067454049964
100.067437102857
100.067411299342
100.067376258771
100.067306621064
100.065515286337
100.065425303792
100.065310465817
100.065205024067
100.064979097943
100.065433781854
100.065524160021
100.065172454278
100.065400887359
100.065493910595
100.065642675078
100.065690946555
100.065737171121
100.065728699344
100.0656855703
100.065617820073
100.063864670865
100.06369303113
100.063534396094
100.063335863321
100.063233280007
100.062950821121
100.062907292617
100.0631300342
100.063383200956
100.063596447075
100.063738863712
100.063939396009
100.06402989973
100.064100615591
100.064091657292
100.064004837732
100.062374287182
100.06208380477
100.061786500575
100.061516448643
100.061181692585
100.061034877767
100.060852999121
100.060614106137
100.060843136064
100.061346845778
100.061651446943
100.061987320843
100.062301020993
100.062454233356
100.062564377567
100.062545217128
100.061084287471
100.060757708102
100.060170237397
100.059684522731
100.059199999677
100.058653017633
100.058363067196
100.058200961671
100.057918888664
100.058196236543
100.058903788982
100.059480313172
100.060181385386
100.060686979232
100.060955804569
100.061112210479
100.059605634225
100.0595690443
100.058942236733
100.057905626431
100.057120171908
100.056235247941
100.05535388634
100.054853116174
100.054582783167
100.053981206516
100.054515608291
100.056018626997
100.056915089182
100.058084463859
100.058955735827
100.059456328794
100.057601931493
100.057622035085
100.057753668921
100.056559909066
100.054593846953
100.053454217094
100.052100138772
100.050625805095
100.0494344484
100.049086919093
100.047993151374
100.04891932867
100.051714788542
100.053098160936
100.055248520651
100.056850156395
100.053113457576
100.05431564535
100.053506003937
100.054522982445
100.052452674813
100.048218123384
100.046616668867
100.044871829662
100.042423892162
100.039704100888
100.039776655505
100.038152296255
100.039358720353
100.043934526024
100.04620356716
100.050218396686
100.042851608916
100.047496919541
100.049054814678
100.046197923356
100.049204100473
100.045736034646
100.036637879302
100.035338029556
100.033434168355
100.030021295599
100.024556516419
100.025310571749
100.023258839881
100.025161254406
100.032066897035
100.034905607627
100.06010185157
100.066304666308
100.072658462176
100.082321039101
100.072924043838
100.073030350615
100.066942659528
100.057482437361
100.059619450773
100.050259227372
100.045125033018
100.044181342662
100.033558235791
100.072555597995
100.095964342014
100.09898606602
100.081103349944
100.038833356727
100.035643853635
100.139060406199
100.224819852923
100.161720346651
100.16550942666
100.163517793704
100.155414343025
100.150994670606
100.200066941924
100.242325323465
100.148476132954
100.160654419276
100.22505779367
100.17838814216
100.174081003945
100.158370299859
100.149403515408
100.151622185002
100.14437350813
100.184384554141
100.124488152952
100.117815935285
100.17107480191
100.129068403628
100.140853094094
100.153680239865
100.244560553172
100.258409973814
100.261875300137
100.254055824842
100.268434244002
100.279212363248
100.296052383039
100.335581577383
100.351492632481
100.252069409776
100.286481662879
100.380377410536
100.328806760769
100.319114489749
100.302059720851
100.320455700248
100.262785540177
100.251569044677
100.300131913328
100.272677039288
100.276383431737
100.281663916709
100.30324830015
100.295000906253
100.263739996677
100.254870784187
100.251712451218
100.332691336264
100.371577874297
100.341979586252
100.34485399113
100.379176315851
100.37170549357
100.345666057868
100.435587162159
100.461409136304
100.432209640834
100.456738507729
100.464029502504
100.422398406238
100.377291224634
100.422733877373
100.369135153127
100.457218292474
100.480797457042
100.467132445998
100.476677577572
100.497849924122
100.470390514587
100.417336023405
100.439291078608
100.472284302324
100.425972960793
100.445172245988
100.446077501103
100.405309413241
100.436659913407
100.413128107105
100.344985158962
100.336980662994
100.402531055007
100.415393975061
100.374935173366
100.40709225034
100.403843360976
100.374641447236
100.411825967131
100.384311551499
100.371567416348
100.390973318189
100.353685516554
100.351327804374
100.408386758274
100.448596113538
100.427339274208
100.440403443807
100.465138298459
100.46483677022
100.443286898346
100.414935779864
100.414067186888
100.474305411404
100.495933496933
100.489779653662
100.488973228826
100.490483134648
100.485945182713
100.470946179368
100.499391874897
100.502652721065
100.499127715971
100.498825764714
100.496180684228
100.491217519281
100.483657654251
100.486625330973
100.490635533965
100.499221646519
100.490594668981
100.501551748676
100.499317475291
100.49641558977
100.497607361486
100.497731654866
100.498408477489
100.499304181658
100.50142004489
100.498658451346
100.490334644765
100.494458437339
100.499788943369
100.481711734457
100.481952336906
100.474315691157
100.477950839276
100.457295226729
100.450267423074
100.469065670918
100.460150081837
100.457809785988
100.456107571538
100.465713387441
100.469305555969
100.445805960761
100.43559097407
100.455970288661
100.442601583322
100.453365571609
100.484464882992
100.482637134121
100.486083236071
100.491570677467
100.502138785354
100.503965177755
100.511043950616
100.509965627736
100.502500990653
100.49676635949
100.498653113516
100.509825697029
100.514805096939
100.515450706255
100.515548004275
100.514199853188
100.507256865118
100.505607156847
100.512718052732
100.515229590937
100.517291224398
100.511866711843
100.505072834819
100.505301065674
100.503486067477
100.501394065338
100.497729019443
100.497467405255
100.495430237287
100.497386529261
100.493654024927
100.498641963477
100.496885961979
100.496113577117
100.496938659486
100.495239868527
100.496500652783
100.493413507514
100.490244133783
100.49233324381
100.489191460909
100.484688891738
100.489460860754
100.49435807058
100.495638522582
100.497964100703
100.500166688569
100.498591786232
100.50034742868
100.49978816458
100.501739006514
100.498176326789
100.496222868213
100.499676470296
100.491686640944
100.491813202157
100.49073971606
100.493490091525
100.492761360172
100.481660763973
100.480587610418
100.49397024669
100.494684849039
100.485001054674
100.492091096839
100.490728550143
100.487049986604
100.493515265318
100.489866445936
100.493327067996
100.498032635749
100.498947238937
100.498878051975
100.498550941868
100.488529538912
100.495919386202
100.500073208971
100.500631782848
100.502967293979
100.509435460315
100.511503553307
100.514420109861
100.516352179176
100.515706250899
100.517297862803
100.518172279925
100.515925377887
100.516101897381
100.51549494421
100.51656421461
100.518444610083
100.518004406943
100.517334683174
100.520051706654
100.515942849357
100.509489811586
100.511213876765
100.515487311023
100.518404260595
100.515014436303
100.515476235557
100.512578541109
100.507910337819
100.506020388958
100.50013130327
100.496582701571
100.497574574494
100.499155394327
100.502130497098
100.508109828207
100.503132825599
100.502261345787
100.500750968191
100.498568726175
100.496269728332
100.496090971404
100.497605793948
100.500342567553
100.506835031293
100.522151025063
100.543792944639
100.581843180306
100.589405727834
100.521751438838
100.473448511072
100.431437535473
100.383714852871
100.356721520391
100.375138646054
100.372586134166
100.370517981493
100.370978655245
100.371913538509
100.372833249848
100.374016604122
100.375650784472
100.377617112152
100.379632701474
100.381391408772
100.382682089814
100.383363948609
100.382090098289
100.380581002202
100.378879230685
100.377036661971
100.375156233962
100.373387916726
100.37182997645
100.370511172185
100.369405762836
100.368476014163
100.367694108443
100.367038198661
100.366530563505
100.366248763463
100.366280521152
100.366716283688
100.367589265253
100.368877519042
100.37037558048
100.371771948788
100.372597426713
100.372853847069
100.372888362156
100.372977564261
100.372989348172
100.373008018125
100.373031232473
100.373056620314
100.373034323747
100.373079889875
100.373067367962
100.373163384244
100.373268088727
100.373241963424
100.373171537171
100.373046489956
100.373019578305
100.373187969484
100.373011887645
100.373017676681
100.37305019594
100.372943779472
100.372859419398
100.373006638674
100.372888219996
100.372987807245
100.372997380626
100.373028407762
100.372933581786
100.372967413779
100.372960891953
100.372943945608
100.372923274806
100.372887771808
100.372899108438
100.372812704518
100.372674776289
100.372590826635
100.372548653582
100.372615753732
100.372712496364
100.372781606287
100.372852512533
100.372838422683
100.372854282695
100.372896148113
100.372942898508
100.37295346452
100.372985401389
100.373022000657
100.373061595551
100.373095316711
100.373113122553
100.373127708633
100.37306986991
100.373294210218
100.373340575387
100.373368004891
100.373409010096
100.373383024141
100.373294996511
100.373204928589
100.373101029902
100.372758713876
100.372302647428
100.372121828998
100.372287599763
100.372481352461
100.372866651995
100.372618817459
100.372387186122
100.372216071047
100.37244374291
100.372443464936
100.372763190655
100.37282094672
100.372713151093
100.372801076798
100.372818007477
100.372919523337
100.372855395363
100.37288155427
100.372953867618
100.372884626295
100.372871303697
100.372919900114
100.372959039698
100.373057332628
100.373065642271
100.373131097068
100.373160072726
100.373164184423
100.373203672816
100.373224022937
100.373422992561
100.373485773535
100.373573407166
100.373643215228
100.373606018891
100.373736321599
100.37336096645
100.373273069405
100.373013577387
100.373038376617
100.373279587849
100.373302550022
100.373512557008
100.373640779854
100.373810494215
100.373837156273
100.373849555271
100.373697712758
100.373471997534
100.373352586168
100.373437480033
100.373501655865
100.373633463314
100.373525114244
100.373461202624
100.373261880694
100.372955436933
100.37282599496
100.373080637576
100.373078749094
100.373200700851
100.373221917338
100.373285318966
100.373347391671
100.373404408046
100.373677179206
100.373835558785
100.373990786195
100.374025525983
100.374046766302
100.373817781661
100.373569052426
100.373122096424
100.372607648478
100.372119747969
100.37233492076
100.372521719774
100.372522131433
100.372364476652
100.371634790478
100.370993481564
100.370390669163
100.370626022292
100.370960783166
100.370822363852
100.370708082793
100.370979064776
100.371295849851
100.371441970457
100.371509871993
100.371248103925
100.371548061188
100.371229930206
100.371912934756
100.372860749541
100.373111050228
100.37298213593
100.372995156153
100.373032719952
100.373074909537
100.373119326836
100.373167944601
100.373173029568
100.373224503423
100.37326505881
100.37331432499
100.373312764795
100.373406163216
100.37351947117
100.373812755574
100.373983060011
100.374123593506
100.374118831957
100.374092869847
100.373919239405
100.37364182005
100.373224985361
100.372697804633
100.372102896641
100.371311115551
100.370887564611
100.370777364916
100.370623770403
100.370529953466
100.369714789232
100.369354312168
100.36920241679
100.369045997692
100.369016935768
100.369487055568
100.369588843019
100.369109306237
100.369455386311
100.369954437529
100.370011251229
100.370127873554
100.37130874527
100.372010910818
100.372806910095
100.373153780375
100.373120567237
100.373087809757
100.373119444001
100.37315665267
100.373202106596
100.373242876049
100.373285425302
100.373333098911
100.373339753794
100.373320389885
100.37345883506
100.373641038604
100.373937425911
100.374127995894
100.374305680366
100.374259702531
100.374275782517
100.374290377576
100.37441679639
100.374248138631
100.374040038857
100.373697209568
100.373353644062
100.373439388193
100.373795701405
100.374069894222
100.374268932685
100.374464290375
100.374430077864
100.374332508629
100.374048556151
100.37375227
100.373724171824
100.373314374951
100.372802164947
100.372196463104
100.371399570777
100.371014535
100.370584523848
100.370322626696
100.37023767554
100.369989754843
100.36973344739
100.369477124727
100.369794469972
100.370123722258
100.370419914227
100.370184959237
100.369835811034
100.369607283062
100.369136244546
100.369117732261
100.369287163339
100.369034963923
100.368502423199
100.368756395045
100.368878747237
100.368439397186
100.368465790423
100.367944221384
100.367530781918
100.36716982613
100.36697546837
100.367462045256
100.367845450442
100.368158380244
100.367716389963
100.367883338464
100.368107460617
100.367856755903
100.368639382293
100.366961125948
100.365367551125
100.364302006958
100.36444068187
100.365039827232
100.365955476909
100.36800877185
100.365631698297
100.364705515618
100.363720962368
100.360267265228
100.357198558348
100.362020547288
100.361254593497
100.361239834408
100.358862703679
100.360352446153
100.357414197677
100.359552975631
100.361207603352
100.361542937568
100.362716445773
100.364145539849
100.365324341147
100.366523531735
100.367391818785
100.366814962174
100.368771464525
100.36593963257
100.373089516276
100.372053841074
100.370652211463
100.368860882941
100.367011502498
100.366178444623
100.368859590062
100.370489876973
100.365509736884
100.362797496362
100.362011832562
100.351304296645
100.354863160858
100.352152026099
100.355693349052
100.35751180091
100.368326363602
100.370339458195
100.372111664159
100.372343261967
100.37245372964
100.372549872519
100.372600322867
100.372619232572
100.372641677023
100.372681227443
100.372739927257
100.372703556245
100.372851008612
100.372822655995
100.37273752873
100.372647678418
100.372629298956
100.37277895404
100.372676897296
100.37279266427
100.372786481179
100.372636754476
100.372693288458
100.372671510932
100.372636325385
100.372599219271
100.372585682095
100.372519352916
100.372376031669
100.372393134709
100.371946827791
100.371233708227
100.372154688389
100.372408462617
100.372409510039
100.372511005283
100.372532927579
100.372548036072
100.372572974171
100.372606886302
100.372633990833
100.372624902611
100.372690757258
100.372617099343
100.372656787477
100.372746843037
100.372751191622
100.372704230754
100.372643919453
100.372669120558
100.372249279883
100.372082489294
100.372386820622
100.372278833865
100.372582041326
100.372453692292
100.372567449153
100.372631144878
100.372556783889
100.372593373015
100.372620484257
100.372636809686
100.372590728133
100.372524554232
100.372549962424
100.372501657321
100.372499596699
100.372389680233
100.372369368822
100.372125062631
100.3713666905
100.372309643131
100.372392672765
100.372433127939
100.372508298682
100.372509015451
100.372557260699
100.372594362399
100.372596092542
100.372592506125
100.372557553036
100.372634973798
100.372543434264
100.372366502522
100.37200327839
100.371515833043
100.372122391688
100.372027626483
100.372532092622
100.37230478898
100.372556017679
100.372621323505
100.372569606172
100.3725814661
100.372628992093
100.372575563675
100.372516500716
100.372491520006
100.372489095312
100.372439205273
100.37239620565
100.372291246935
100.372262296457
100.371081385519
100.36951724082
100.371561583888
100.372359138918
100.372340578839
100.372427125738
100.372489839616
100.372487272165
100.372517381858
100.37258470243
100.372625001814
100.372598624433
100.372573257888
100.372598907709
100.372510690204
100.372325499983
100.372629410141
100.372634937084
100.372613787523
100.372611470563
100.372621811758
100.372502392768
100.37236533408
100.371846461233
100.37248432118
100.372406330512
100.372663206282
100.372595059179
100.372672113502
100.372657969052
100.372644118076
100.37258113248
100.372645703077
100.372529788825
100.372516890392
100.372486475773
100.372446596304
100.372355747637
100.372379561156
100.371718284335
100.37008439114
100.372155192074
100.372442237962
100.372432712372
100.37249193983
100.372534111997
100.372489284106
100.372650439381
100.372683897251
100.372532661069
100.372522695572
100.372499186894
100.37244140061
100.372384575727
100.372345398459
100.371908023577
100.370219259965
100.369024946045
100.371180947453
100.372249557428
100.372407482395
100.372461066201
100.372504196329
100.372575767966
100.372508652226
100.372700979465
100.372613079003
100.372707785713
100.372724480885
100.372650772783
100.37252207487
100.372005819525
100.371457010616
100.372087364186
100.372582769141
100.372563839562
100.372796301457
100.372735774509
100.372783054055
100.372771143064
100.37272601767
100.372781910068
100.372579880413
100.372599843452
100.372534896053
100.372511067259
100.372474437197
100.37243099284
100.371547872505
100.370133089775
100.37229054106
100.372619907624
100.372589357793
100.372588512794
100.372691079623
100.372564751617
100.372824085219
100.372705382749
100.372836450861
100.372890321646
100.372850540024
100.372688088553
100.372233757312
100.372733932401
100.372800243355
100.372969395678
100.372935132917
100.372950192798
100.372901610951
100.372830332214
100.372885165353
100.372668074378
100.372689597339
100.372644507544
100.372628719926
100.372592743653
100.372565977529
100.372204068318
100.370583610099
100.369701513989
100.371935672657
100.372624231273
100.372660428719
100.372691749293
100.372719048634
100.372765270356
100.372688171605
100.372913341168
100.372800056689
100.372953546767
100.373020657901
100.372999738806
100.372882291271
100.372352275863
100.372845399043
100.372900762652
100.373020663317
100.37303780956
100.373082591385
100.372925974014
100.372990526611
100.37302427171
100.372944969938
100.372833367103
100.372778174231
100.37274638858
100.37281937303
100.372758185083
100.372758545182
100.372715220949
100.372532576815
100.371890734865
100.370275904053
100.369855582202
100.371797519142
100.372571832933
100.372758404852
100.372822983114
100.372830793438
100.372820894012
100.372860503098
100.372837618602
100.37303781166
100.372961949874
100.373047264424
100.373115207301
100.373094766765
100.372935432642
100.372468398676
100.372859993567
100.373076699127
100.373099231218
100.373033399302
100.373098241323
100.373142416956
100.373119563209
100.372985286818
100.372504808614
100.372841628925
100.372936860334
100.372996949959
100.373114787046
100.37315698556
100.37299334999
100.373069849417
100.37295253031
100.372983663803
100.373077220462
100.372858324456
100.372885525852
100.372956072614
100.372898380361
100.372906741285
100.372909874821
100.37288269842
100.372332930023
100.371730242051
100.372941767628
100.373004806728
100.372975337909
100.372964731852
100.37299949083
100.372959234925
100.372976886977
100.373056608244
100.373090559827
100.373078480673
100.373121073984
100.373081527506
100.372793141019
100.372937932105
100.373055792925
100.373031329632
100.373052861545
100.373049267099
100.373126067607
100.372987248036
100.373027084351
100.373015747456
100.373034554457
100.373055067575
100.373025364889
100.373169801139
100.372324953275
100.372356750084
100.373159498562
100.373113052566
100.373095678095
100.373092525006
100.373069293655
100.373073323493
100.373033952757
100.373126031884
100.373043740864
100.3730848304
100.373104538809
100.37300570867
100.372786588954
100.372338568363
100.372724303254
100.372943156427
100.373039933411
100.373027109152
100.373089913835
100.37308740561
100.372975126979
100.372814609739
100.372342363658
100.372712240369
100.372932918277
100.373045795104
100.37304447107
100.373061314101
100.373102301632
100.37314151021
100.373057362689
100.373087141249
100.373101839028
100.373113096554
100.373127611384
100.373171247173
100.373091586916
100.373319618732
100.372654091121
100.373166888954
100.373314500909
100.373232508442
100.37319587033
100.373182589621
100.373159146817
100.373140470576
100.373118979281
100.373177840909
100.373090770189
100.373116512734
100.373126387933
100.373030877087
100.372905153893
100.372424634845
100.37276699908
100.372975201317
100.373061320545
100.373081730425
100.373096943079
100.373059182454
100.373016695287
100.373026586368
100.372731739408
100.372377084534
100.372830255021
100.373050743168
100.373094089491
100.373098064652
100.373197140392
100.373161824232
100.373091742859
100.373129859886
100.373141235353
100.373176451729
100.373166730755
100.373119938868
100.373164653518
100.373187291494
100.373243066391
100.373215609495
100.373277583802
100.373164774264
100.373407075695
100.372872797944
100.373535676996
100.373338921421
100.373426815831
100.373349722665
100.373331199767
100.373327989833
100.373249302925
100.373206491969
100.373196394824
100.373212335838
100.373133006635
100.373188852475
100.373277820068
100.373350283077
100.37325399221
100.37321197063
100.373320138081
100.373416143268
100.373336408899
100.37337344455
100.373368994095
100.37351586905
100.373684695279
100.373690493038
100.373764848735
100.373622409662
100.373357078226
100.373320258118
100.373439974429
100.373321039205
100.373351194495
100.373281697575
100.373326728545
100.373413682272
100.373381880424
100.373472174307
100.373463322109
100.373614656761
100.373463193147
100.373762706387
100.373625224209
100.371988252851
100.372570065946
100.370710971161
100.371452096704
100.369751584254
100.370583271282
100.3690152152
100.368022681437
100.368576512836
100.367762753013
100.368588155773
100.367847993656
100.367414168506
100.368367400812
100.368015626701
100.367840229201
100.369277730962
100.369284860398
100.369419879764
100.371131491706
100.37127755012
100.372349884283
100.372502283827
100.372617857678
100.372670527591
100.372737284823
100.372733767136
100.37278638034
100.372809910432
100.372846981278
100.37280192743
100.372890418381
100.372810937572
100.372843713024
100.372903297667
100.372890511067
100.372820348057
100.37273821499
100.372878890939
100.372818297024
100.372843470142
100.372551207148
100.372415182349
100.372637281104
100.372469385896
100.37208993532
100.371690828017
100.371681643029
100.371976329832
100.372026378368
100.372542934905
100.372407742838
100.37211477275
100.371613652871
100.370963516823
100.370248889796
100.370787492055
100.371028651592
100.370918669296
100.371523227755
100.371538695814
100.371594393289
100.371350458617
100.371662607002
100.372153316439
100.372301137619
100.372536717862
100.372490871333
100.37261495086
100.372619673893
100.372523773205
100.372532546506
100.372563787746
100.37258437773
100.372621150915
100.372642226603
100.372657524565
100.37270868935
100.372715258249
100.3727397774
100.372750076408
100.372786589312
100.372832965128
100.372832464696
100.372861789071
100.372899949537
100.372888415777
100.372990224252
100.372967019783
100.372898271567
100.37297395702
100.372819319406
100.372846085987
100.372838077264
100.372845889906
100.372807423504
100.372802842241
100.373047151823
100.373041292
100.372997668354
100.373033058468
100.373072416902
100.373120513148
100.373168074384
100.373286668319
100.37333669027
100.373386714155
100.373430474014
100.373521758699
100.373581410324
100.373738244718
100.374001621749
100.374223338576
100.374426573294
100.374598689548
100.374549378465
100.374452530083
100.374187131267
100.373808883018
100.373485050222
100.373647802894
100.37325692291
100.37283971654
100.372280941184
100.371480352532
100.371130565345
100.370719007105
100.370488336759
100.370429841568
100.370257331171
100.370592121372
100.370337993006
100.369980168831
100.369625110254
100.369469627538