/*--------------------------------*- C++ -*----------------------------------*\
| =========                 |                                                 |
| \\      /  F ield         | OpenFOAM: The Open Source CFD Toolbox           |
|  \\    /   O peration     | Version:  v1612+                                |
|   \\  /    A nd           | Web:      www.OpenFOAM.com                      |
|    \\/     M anipulation  |                                                 |
\*---------------------------------------------------------------------------*/
FoamFile
{
    version     2.0;
    format      ascii;
    class       volScalarField;
    location    "1.7";
    object      p;
}
// * * * * * * * * * * * * * * * * * * * * * * * * * * * * * * * * * * * * * //

dimensions      [0 2 -2 0 0 0 0];

internalField   nonuniform List<scalar> 
80683
(
100.075683849832
100.077652673746
100.07449325817
100.07881981329
100.085846437012
100.085981662439
100.084033664968
100.084583532262
100.084567663654
100.084946928556
100.085443563415
100.085211864081
100.086936342199
100.086551301484
100.089091678982
100.089093310279
100.085664777452
100.080850796419
100.079765217872
100.07971719804
100.080721936284
100.080579002011
100.079796897002
100.081237950539
100.087686009216
100.087736751657
100.082023799209
100.080218658016
100.080114451429
100.079402397248
100.079271474983
100.080257685997
100.080208616142
100.081959423651
100.087508239029
100.087338811977
100.081141347876
100.079759821103
100.080492021051
100.080445133929
100.079562121432
100.079611108314
100.080733710517
100.085471600537
100.088741987529
100.088592188533
100.081649369601
100.081136652734
100.078943860927
100.078426505037
100.078354149023
100.077984322837
100.077450667113
100.076315286035
100.077407085257
100.078558520876
100.078720901114
100.077884905319
100.07685067276
100.075698252286
100.075326032912
100.075915529721
100.075840325233
100.075163568285
100.075716237625
100.076845259805
100.077820706412
100.078801369001
100.07877293095
100.077581099795
100.07648150521
100.077656864807
100.078082332706
100.078411957043
100.078414703123
100.078915616007
100.081352808166
100.082060890081
100.079455286571
100.082611376727
100.085729293896
100.087382458183
100.085225563944
100.08497560148
100.086139668905
100.084134983099
100.081656863632
100.077461191645
100.082761666265
100.070858774684
100.058829349658
100.064551736305
100.065676259623
100.077862215879
100.073762585465
100.07497850224
100.077134374512
100.075139488466
100.073726267341
100.073213584445
100.075788091787
100.077288821674
100.073224587349
100.07228402033
100.074619752521
100.071824928818
100.070705288877
100.071734663162
100.071737926969
100.070753738793
100.07183591933
100.074564789656
100.072234646207
100.073032498545
100.07751459565
100.076302546552
100.073537152908
100.073902002096
100.075229791278
100.077185538078
100.07491976686
100.073626218396
100.078173442432
100.078207347394
100.075210592333
100.078751199987
100.084987348427
100.090386261949
100.083753466123
100.083660921137
100.0879425582
100.103237477882
100.071850676423
100.072391028756
100.056265924882
100.029803823782
100.030720912905
100.026264071088
100.026674057046
100.033061577653
100.063810349059
100.076154907029
100.072263492585
100.072067619766
100.07896692328
100.065247920312
100.065998339561
100.065927700405
100.066118668455
100.075825122359
100.070976417661
100.070964177504
100.075768243611
100.066141150356
100.065958867403
100.065982033505
100.065062754908
100.063892853749
100.0659448923
100.064162896805
100.024659829085
100.027817301663
100.028819230606
100.028675087821
100.027886875359
100.028035057758
100.029499023654
100.030155925419
100.033470068383
100.030586768283
100.031594774512
100.035181395546
100.035180941984
100.031588396232
100.030520297398
100.03319807401
100.032699213481
100.025979881937
100.027685639691
100.034442821062
100.034878309569
100.033760070654
100.033644669642
100.034757623064
100.034649284308
100.033764837667
100.034156025115
100.034457808125
100.029208989344
100.029980646572
100.031176743782
100.0311260623
100.02983715431
100.028944527202
100.029861915739
100.029125211987
100.03344858179
100.034683087172
100.035392342783
100.035643767418
100.034819224972
100.034857944355
100.035793526331
100.035658303342
100.035013512913
100.035283972222
100.035492462463
100.035497801029
100.034738741527
100.034322947448
100.034246801824
100.034508858191
100.034007189793
100.03380545926
100.034930297767
100.033101517627
100.032893205569
100.033064781272
100.033224807794
100.032726744293
100.032716279866
100.033323051818
100.033338003425
100.033186753172
100.03346629942
100.033496472436
100.033507116126
100.033364714559
100.035108371468
100.035029070373
100.035296355991
100.035143140979
100.033167709181
100.03082460753
100.030754510074
100.030540000785
100.030495238101
100.030482550288
100.030496318622
100.030467704286
100.030566881539
100.030822742534
100.030884389607
100.031184054219
100.031206308102
100.031291107929
100.031216870592
100.031123486021
100.033289947474
100.033346224746
100.03105289087
100.029209290977
100.028913016339
100.02874818125
100.028481579596
100.028396761359
100.028209227995
100.02870223196
100.028803295131
100.028514537375
100.02889479444
100.029035765417
100.029377414706
100.02945882683
100.029590537589
100.029513341908
100.029370519494
100.027924679032
100.027593566049
100.027150929544
100.026830770884
100.026437582989
100.026322652253
100.026075374301
100.025999960535
100.026278994956
100.02669632146
100.027151561702
100.027442834298
100.027889346018
100.028075859922
100.028258715882
100.028169251337
100.027029672653
100.026577110173
100.025909749298
100.025209927805
100.024616641556
100.023991331459
100.023770689138
100.023624528183
100.023249324493
100.023633204135
100.024560408634
100.025177520133
100.025816489343
100.026491223971
100.026834858679
100.027140117833
100.026188655748
100.026009337956
100.025190539228
100.023949341706
100.022757091476
100.021751336272
100.020762466268
100.02030891499
100.020221948833
100.019575812107
100.020192618478
100.021813040376
100.022716392884
100.023964344966
100.025072106168
100.025662684658
100.024323222507
100.025296203723
100.024959275571
100.023446053186
100.021204039557
100.019116270424
100.017736920607
100.016184717815
100.015000819578
100.015045944945
100.013899059107
100.014884043805
100.017897482084
100.019163206374
100.021519614641
100.023461767824
100.021468622481
100.022304069385
100.024161114688
100.0237046411
100.020884707471
100.016697294685
100.012635159914
100.011220047456
100.008920264024
100.005971045445
100.007115107106
100.005111532278
100.006344650985
100.011553357358
100.013057528685
100.01808769888
100.007815672903
100.013072369639
100.011033297356
100.01541576016
100.016224672568
100.011014151024
100.001115759328
99.99389737446
99.9960011209662
99.9929939271631
99.9839172419811
99.9875725577846
99.9869392785497
99.9889897724985
99.9952602192176
99.9961433825951
100.00651709438
100.021225709808
100.029395939092
100.029499390334
100.040065423212
100.034991127426
100.025418190184
100.014493028914
99.999320114799
100.00088800088
99.9981081941404
99.988458147981
99.9836954849369
100.016848222345
100.040497586829
100.043268755383
100.024881035782
99.9900595468357
99.9863386538427
100.080414822718
100.160813797477
100.097781091279
100.10176301775
100.093530456643
100.085045238744
100.08338405523
100.086423222382
100.09844084201
100.110486055251
100.130521998211
100.107427921588
100.091417425734
100.088309320179
100.064536514531
100.056342291822
100.05380369429
100.057573956414
100.068414181205
100.082524925672
100.173304182156
100.19392986818
100.197346589761
100.18403424634
100.194899389248
100.195963572725
100.228952136727
100.280123469334
100.184330673648
100.205908393821
100.268903148772
100.235237307279
100.270632158036
100.292571348685
100.219668911718
100.196196092997
100.242232429896
100.207321318722
100.170938276751
100.202180176421
100.145627860561
100.139773314837
100.189230184522
100.166360351781
100.175289977971
100.269644213145
100.316955462991
100.283812877084
100.286002534326
100.323352286822
100.305924672601
100.283160145477
100.390420955781
100.418722318331
100.383805891875
100.408446096936
100.413168508151
100.366018819406
100.311829224059
100.357438903482
100.297823862867
100.407285978649
100.430514162488
100.407136047759
100.422686045951
100.448535712507
100.406796320113
100.349202635097
100.374102409657
100.296538705479
100.334702203487
100.416362501883
100.445860386574
100.452744034158
100.459674568047
100.466439046708
100.468587403108
100.468810492815
100.469616371397
100.47034820517
100.469150069877
100.466968653632
100.465382893243
100.464568341402
100.464380654405
100.46475307049
100.465390421584
100.466111019938
100.466795432408
100.46762243243
100.468149055668
100.469159370443
100.469379043852
100.470904476648
100.472344717353
100.489913979131
100.503989413164
100.458840641635
100.421452534221
100.38015173234
100.355750309474
100.37413832288
100.371777051091
100.3707005243
100.371427809838
100.372328785108
100.373205088834
100.374285661511
100.375673830882
100.3772970696
100.37900502461
100.38058931127
100.381816178088
100.382476724915
100.381195366251
100.379744124224
100.378237557274
100.376732185238
100.375236868177
100.373739526366
100.372263519742
100.370881612621
100.369668018254
100.368649338426
100.367800913812
100.367095401743
100.366509950992
100.366060046354
100.365825413896
100.365884319559
100.366324616134
100.36722046336
100.368550038525
100.370101691512
100.371453778917
100.372001725213
100.371973294974
100.371885580185
100.372015951192
100.372094674861
100.372159283646
100.372204029797
100.372223119291
100.372353533395
100.372428255599
100.372696673391
100.372838982191
100.372969733143
100.372939183775
100.3728799001
100.372778574465
100.372688801395
100.372563741972
100.372587184166
100.372524090195
100.372730377125
100.372836241217
100.372885046377
100.372741165993
100.372593494709
100.372322509427
100.372219690403
100.372110690162
100.372101288871
100.372073108438
100.372006976636
100.371947228884
100.371891784901
100.371869745591
100.371743274556
100.371872106136
100.371917224331
100.37197482136
100.372007950367
100.372028175447
100.372099259178
100.372183507545
100.372459874295
100.372630750778
100.372782147734
100.372634697508
100.372489170113
100.372312999415
100.37205005789
100.372008706553
100.371940282248
100.371907397571
100.371877666342
100.371837377124
100.371802215199
100.3717578525
100.371752003434
100.371621786392
100.371734770223
100.371761015285
100.371795413075
100.371815402169
100.371846259873
100.371920770842
100.371963093578
100.372193639517
100.372354931629
100.37246773141
100.372460244508
100.372363152459
100.372189538984
100.372007179726
100.371954481326
100.371922728476
100.372175848101
100.372330321574
100.372208349851
100.372073264038
100.371853004035
100.371797248313
100.371743855059
100.371735154961
100.371718740068
100.371691192857
100.371667886215
100.371630895189
100.371605766682
100.371506169017
100.371605016073
100.371621815736
100.371631569018
100.371661933737
100.371680808716
100.371710847282
100.371723673268
100.37194321309
100.3720697926
100.371878989849
100.371769858982
100.371608815456
100.371643574338
100.371600695351
100.371576658965
100.371557360923
100.371561989475
100.371537190918
100.371488785049
100.371448826864
100.371387928602
100.371477586082
100.371495476489
100.371499718486
100.371514686282
100.371517060443
100.37154197302
100.371510645692
100.371664738757
100.371719879114
100.371775245518
100.371636749818
100.371596235973
100.371523795843
100.371482251881
100.37146585097
100.371475807339
100.371427064394
100.371478212898
100.371448795849
100.371431127667
100.371423023551
100.371414126966
100.371367299464
100.37128246423
100.371266308134
100.371343322818
100.371320981891
100.371346183393
100.371344326168
100.37137326677
100.37136635492
100.371432215299
100.371398371054
100.371558577067
100.371431954717
100.371381782562
100.371180928088
100.371212080375
100.371157727691
100.371358047486
100.371319669531
100.371362534467
100.371304233225
100.371341130306
100.371356494624
100.3713206349
100.371270067403
100.371311412696
100.371275590312
100.371279594192
100.371192418289
100.371115717641
100.370996975998
100.370738937926
100.371019304181
100.371152888704
100.371176082905
100.371237166699
100.371233550682
100.371255413776
100.371281201944
100.371301185356
100.371289493161
100.371332382254
100.371264237175
100.371203582343
100.371160616608
100.371050075452
100.371230512686
100.371065071846
100.371213543048
100.371290404122
100.371202013223
100.371235643418
100.371233479794
100.371220373701
100.371190425276
100.371194894781
100.371131185947
100.371096806089
100.370958519681
100.3705546285
100.370986871097
100.371096109225
100.371120657952
100.37115972463
100.371160969311
100.371186396285
100.371190775544
100.371196745783
100.371141244655
100.371189317152
100.371057500933
100.371080458871
100.371175853505
100.371219550633
100.371186775177
100.371079926161
100.371057559632
100.370723718423
100.370560545268
100.370877888692
100.370752641131
100.371093608778
100.370838978685
100.3710853854
100.371161469986
100.371124681016
100.37114272055
100.371115447332
100.371128760014
100.371114793318
100.371098571904
100.371099479612
100.371063484232
100.370960322315
100.370565409304
100.37100352997
100.371053229459
100.371092552322
100.371105747827
100.37110140005
100.371145477262
100.371158827643
100.371202787693
100.371181874301
100.371196264766
100.371230608363
100.371277935876
100.371318579747
100.371370838843
100.371321866919
100.371347891016
100.371394423567
100.371447513964
100.371504300263
100.371572187298
100.37163862569
100.371715661742
100.371789834806
100.371878011554
100.371956572553
100.372054238164
100.372188723744
100.372253256062
100.372312422547
100.372316228821
100.372452838285
100.372538181498
100.372806537951
100.372940752578
100.373070383829
100.373079485115
100.373003089341
100.372896065184
100.372638628327
100.372422159962
100.372282366391
100.37215676543
100.372056556203
100.372106057538
100.372185509188
100.372380827943
100.372502235523
100.372774679576
100.372660842243
100.37251357256
100.372307002224
100.372129896418
100.37208338094
100.371941775644
100.371818509337
100.371672543432
100.371545165085
100.371573020651
100.371626484164
100.371830100573
100.372038404986
100.372151805014
100.372247137798
100.372376208177
100.37232294356
100.372187650056
100.371996173229
100.371823577025
100.371791610151
100.3716707691
100.371569267187
100.371474999803
100.371293412344
100.371039112796
100.370751630245
100.370648272246
100.370434591582
100.37054379695
100.37068375753
100.370966734129
100.371249561917
100.370993849148
100.370769489492
100.370599579886
100.370391148441
100.370606343443
100.370604269048
100.370905894142
100.370965519484
100.370854812978
100.370984148311
100.371040397431
100.371231992938
100.371223716722
100.371259712566
100.371251938974
100.371233854812
100.371459350468
100.371496036101
100.37154360549
100.371564941695
100.371616533235
100.371655144364
100.37172225889
100.371778289674
100.371855645431
100.371908822098
100.371990789956
100.372057494295
100.372137858796
100.372280971022
100.372352444365
100.372414657077
100.372396560552
100.37256379486
100.372666363526
100.372929723163
100.373034016931
100.37318683798
100.373152073047
100.373160122077
100.373180791468
100.373018348841
100.37280635293
100.372687580997
100.372574545637
100.372266307278
100.371877046178
100.371706915363
100.371587209253
100.371394019509
100.371251339524
100.371118856607
100.371005184035
100.370866909598
100.370771443191
100.370659429088
100.370781125436
100.370956682637
100.371137332958
100.371268954313
100.371398452078
100.371482711769
100.371611814941
100.37172578406
100.371857690899
100.371970903585
100.37180943135
100.372018922936
100.372285241033
100.372251761323
100.372435322295
100.372344103666
100.372182985396
100.371911555559
100.371996461196
100.372116071186
100.372148305596
100.372235967749
100.372382669206
100.372442421677
100.372505094158
100.372500064184
100.37268435705
100.372776019902
100.373024466174
100.373121791492
100.373248065827
100.373236794148
100.373272584332
100.373113593695
100.372937057478
100.37266697544
100.372357933716
100.372028452337
100.371468430739
100.371224564775
100.371062213403
100.370899345263
100.370715080053
100.370551087909
100.370369791586
100.370220767073
100.370103570129
100.370310071457
100.370511892311
100.370731741285
100.371056646851
100.371105312042
100.371305419927
100.371119057542
100.371349391764
100.371535741444
100.371381152558
100.371694392688
100.371985394324
100.372192711366
100.372230928078
100.372167745348
100.372245597446
100.372315979504
100.372477528366
100.372519469627
100.37259334713
100.372597593859
100.372778900991
100.372869091064
100.373104393539
100.373211872977
100.373356862208
100.373341580028
100.37338166812
100.373223747799
100.373074392179
100.372816590808
100.372484029087
100.372186826674
100.371665316484
100.371448298386
100.371137207611
100.370952327073
100.370897785536
100.370667627072
100.370506818591
100.370334393402
100.37017172365
100.369942640701
100.369716351814
100.369510818032
100.369334488576
100.369145565239
100.368892976341
100.368677155757
100.368982368351
100.369273091955
100.369454639973
100.36961618695
100.36979117447
100.369985621959
100.370230997225
100.37044032041
100.370586461189
100.370720237661
100.370934375712
100.37079222307
100.370631821135
100.370209317578
100.370259907709
100.370459487886
100.370437203757
100.371029617228
100.371355705809
100.37177009029
100.372034545275
100.372075412429
100.372029615401
100.372095759473
100.372165121978
100.372038325347
100.372068989471
100.372149098376
100.372194267525
100.372304720624
100.3723977528
100.372586505508
100.372602419158
100.372687610648
100.372689932616
100.372872260481
100.372971174482
100.373197992301
100.373318019515
100.373498580058
100.373413638252
100.373514296352
100.373354980142
100.373195222329
100.372930731428
100.37261718149
100.37231270243
100.371803888086
100.3715772477
100.371160612496
100.371104392678
100.370950774561
100.370990956278
100.370934628459
100.371051257778
100.370870524216
100.370688841403
100.3705355474
100.370363587488
100.370165092
100.36991676953
100.369681260253
100.369443693001
100.3692027895
100.368880544276
100.368522990843
100.368197928742
100.36793219962
100.367543093132
100.367789430169
100.368156385242
100.368432451159
100.368767869165
100.369019019942
100.369226047387
100.369477645862
100.369721397152
100.369976704663
100.370153243807
100.370320949402
100.370474732881
100.370699449032
100.370663254892
100.370541959306
100.370316706017
100.370196351744
100.370040002435
100.370283969883
100.369987926242
100.369762200829
100.369396914346
100.368997070886
100.368578702923
100.368073022056
100.367388371981
100.366346861599
100.364904245421
100.364176804227
100.364528179114
100.365222805719
100.365866947457
100.366501461417
100.36722386038
100.367803680071
100.368352787159
100.368825445516
100.369228109528
100.369629549489
100.370220282229
100.368568768723
100.367920533016
100.36751316146
100.367101739711
100.366696771714
100.366342914692
100.365879049401
100.365386120354
100.364438010411
100.363518406632
100.360524718324
100.357959613506
100.362158399588
100.361481158785
100.360812771161
100.357339010294
100.357418528683
100.35716523609
100.359872715383
100.36120932868
100.361964223176
100.363130800134
100.364003338706
100.365271076954
100.36626870299
100.366934466465
100.367654852442
100.368220018698
100.368783209809
100.369234979942
100.369627434083
100.369972521951
100.370410403933
100.370205365839
100.370808634989
100.369046144963
100.372292809561
100.372538228706
100.372637086116
100.372835320186
100.372978388795
100.37296722043
100.372616314785
100.371878803384
100.370939019052
100.369597922
100.367621176992
100.365896124945
100.364548587118
100.366080632907
100.366626694456
100.362646001482
100.360394160469
100.359710011269
100.348997231067
100.352714014567
100.351617438885
100.355146641636
100.357825829069
100.366303383812
100.368111451526
100.370278600385
100.370191093662
100.370386884683
100.370534707225
100.370752564042
100.371042535004
100.371305573922
100.371565125693
100.371802070776
100.371002640593
100.369493957899
100.367907080416
100.366657057087
100.365912287135
100.365648817109
100.365765927038
100.366143599253
100.366679409723
100.367306747451
100.368028072452
100.368889992887
100.369924241648
100.371158126146
100.372582026621
100.374120929149
100.375702954043
100.377291623659
100.378886794693
100.380463835053
100.381947286078
100.383231342181
100.384314383018
100.383580919074
100.38247916256
100.381423164376
100.380214647755
100.378865220754
100.377478414422
100.376097158308
100.374713988209
100.373303226972
100.371884312451
100.370537724657
100.369347975377
100.368352055899
100.367531502721
100.366871307694
100.366369844925
100.366054611548
100.365985695651
100.366226062312
100.366834510374
100.367857481632
100.369233455033
100.370729465375
100.371829512259
100.372142445051
100.372251398814
100.372319642147
100.37230930967
100.372358052497
100.372481812859
100.3726620521
100.372667631497
100.372778848953
100.372801406533
100.373019051673
100.373135379224
100.373312306134
100.373479002557
100.373503074353
100.373582682868
100.373662426306
100.373652178779
100.373503576682
100.373348896055
100.373023863958
100.372771953581
100.372574279253
100.372417206671
100.372090831923
100.371739262768
100.371335812436
100.371224420072
100.371085246615
100.371090928034
100.371214429912
100.37113549114
100.371411060908
100.371296478789
100.371107276364
100.371223536925
100.371008475706
100.370849186195
100.370694065714
100.370481132457
100.370241659364
100.370004703206
100.369739541756
100.369437319794
100.369169206187
100.3687024132
100.368922175158
100.369280608853
100.369583661957
100.369837636805
100.370073405883
100.37032089846
100.370530037945
100.370689970655
100.370864040792
100.371091803824
100.37093071505
100.370966613717
100.37100901756
100.370789844161
100.370409545433
100.37005230664
100.369909831149
100.370083303007
100.370322398524
100.370531098339
100.372201522023
100.372038280827
100.372624466906
100.37248077555
100.372235596248
100.372559679208
100.372527723416
100.372673769991
100.37288444524
100.372816452732
100.372939105523
100.373012260618
100.373281476879
100.373570388556
100.373751815903
100.373859602299
100.373827529168
100.373726001365
100.373643428515
100.373508202941
100.373192065406
100.372931866116
100.372541126414
100.372205857482
100.37187435022
100.371486626175
100.371353822625
100.371090834166
100.37122939509
100.371088018406
100.371229830034
100.371330099865
100.371537219392
100.371454365885
100.371687054037
100.37152409695
100.371543735995
100.371396965087
100.371275030726
100.371137595636
100.370970128556
100.370780757451
100.370591441364
100.370375887861
100.370124346788
100.369846449922
100.36955744273
100.369222309753
100.368803396021
100.36833955719
100.367989704164
100.367545422065
100.367870726672
100.368309707936
100.36874912097
100.368984385276
100.369308546256
100.36961841425
100.369907356023
100.370159327828
100.370392093947
100.370606898574
100.370795473002
100.370968517573
100.371153995142
100.371360661963
100.371499431844
100.371392265168
100.371285573957
100.371282181152
100.371004299895
100.370103542593
100.369252743397
100.36895076883
100.369174981064
100.369498874544
100.370203416621
100.370656277827
100.370554948552
100.369606331433
100.371492809478
100.369788433098
100.37209885397
100.372272138925
100.373589434634
100.372216300526
100.371869996913
100.371445304315
100.370831943929
100.370154448825
100.369503800053
100.368863208487
100.368359274136
100.367888870245
100.367252246089
100.367401699618
100.365219103305
100.364651007898
100.363848119339
100.36302440773
100.36081224166
100.359984123922
100.359152296939
100.358801604159
100.348492645893
100.353296565032
100.350284849708
100.349763270374
100.352446544257
100.353659648754
100.35218291869
100.352834112725
100.353099989953
100.358868653167
100.356590861424
100.358310915753
100.356490980884
100.354523515687
100.355428672993
100.357726957163
100.359086292093
100.360164562466
100.360261154467
100.35808240206
100.358860655245
100.361225382362
100.36244295273
100.364158459622
100.36386960841
100.365254935292
100.3662911433
100.36732945425
100.368111301019
100.368808931382
100.369320460415
100.369734527761
100.370069585785
100.37039499909
100.370546874091
100.370554074883
100.37067215778
100.370773410847
100.369997507718
100.36893448155
100.371473395918
100.372670462684
100.372884571105
100.372645529887
100.372676560018
100.372856544046
100.372856354337
100.373097485992
100.373064492161
100.373179650014
100.37327065891
100.373554554264
100.373659084124
100.373990297046
100.374128265736
100.374063877662
100.374090572143
100.374019813081
100.373975214295
100.373945832879
100.373826313179
100.373641966906
100.373364522033
100.373104795498
100.373024538054
100.372539663946
100.372303940214
100.37205131819
100.371947514097
100.371712990122
100.371504163318
100.371248693316
100.371351616827
100.371341476214
100.371499161649
100.371643586401
100.371560600917
100.371749533091
100.37168417149
100.371822779865
100.371710832285
100.371616368619
100.371469721352
100.371465294403
100.371264484921
100.371117261456
100.370937754422
100.37075094758
100.370523906955
100.370302851656
100.370022625055
100.369726125954
100.36942789142
100.369070812825
100.36864836825
100.36830889574
100.368523009938
100.368958152064
100.36931446648
100.369623984475
100.369921957728
100.370199837467
100.370429975985
100.370645111447
100.370848212214
100.371037729575
100.371198335086
100.371361520109
100.371371824314
100.371429095998
100.371255265301
100.371068598797
100.371296044696
100.370523428079
100.370759976604
100.369902426431
100.370320356741
100.37070907161
100.370782473683
100.371047233895
100.370881145066
100.371294097972
100.369377062025
100.373035716473
100.374545658035
100.373253340048
100.372221770032
100.372489322388
100.371264797984
100.370711409256
100.369959362233
100.369060023369
100.368453600681
100.367832948523
100.367232791959
100.366656658924
100.366073006711
100.365425076835
100.365615354175
100.366242162568
100.367021288034
100.367701589212
100.368440588595
100.369239278143
100.369945167436
100.370622445112
100.371128833109
100.371676922602
100.372320309804
100.37182141295
100.371546529989
100.371943628186
100.372249220134
100.372520636799
100.372428155801
100.372420286901
100.372639204473
100.372615398102
100.372844961776
100.372873887061
100.372905500759
100.373109176203
100.373152655223
100.373385004862
100.373688265116
100.373854639665
100.373957662295
100.373930395646
100.373917869185
100.37389021368
100.373763354227
100.373496354967
100.373108631893
100.37282541224
100.37312318944
100.373279869612
100.373484709865
100.373798383622
100.373937232884
100.374042247904
100.374105033734
100.373987606613
100.373856566773
100.373636967571
100.373553056687
100.373428252283
100.373148991721
100.373112183597
100.373025255502
100.373041772379
100.372778528775
100.372793642094
100.372623647783
100.372527143857
100.372453887001
100.372720428927
100.372685590983
100.372924076645
100.372963901779
100.373032265521
100.373043780665
100.37264664996
100.372753837933
100.372886031463
100.373041190257
100.373297198093
100.373362214016
100.373558902546
100.373921201038
100.374080206236
100.374080536287
100.373998303583
100.373814983234
100.37374067003
100.373555929183
100.373513580134
100.37343149981
100.373302738248
100.373098911051
100.372859932285
100.372506453832
100.37237998674
100.37197633113
100.371774937221
100.371623746462
100.371356366809
100.371468578707
100.371359571387
100.371642930977
100.371517086021
100.371634183425
100.371704194892
100.371820361947
100.371780380144
100.371908422952
100.371863038643
100.371924617761
100.371831552923
100.371720486623
100.371586948511
100.371418509498
100.371239819285
100.371069322095
100.370865601895
100.370664542457
100.370409503186
100.370174575582
100.36987645178
100.369557182588
100.369237524005
100.36884746589
100.368386726045
100.368037553046
100.367528081157
100.366889884108
100.366231129819
100.365612097527
100.36473594441
100.363971915468
100.364861759237
100.365676788332
100.366319710966
100.366989930828
100.367559413208
100.367983040283
100.368164774934
100.367801608625
100.367495516438
100.366898721166
100.366242141578
100.365536253286
100.364545854846
100.365376309545
100.365899160843
100.366581311478
100.367124132544
100.367466487899
100.366829593779
100.366271266936
100.365441170705
100.365999224134
100.366526444057
100.367072738276
100.367665931521
100.368169304145
100.368558140263
100.368723220827
100.36821907723
100.367780210396
100.367379708999
100.366945306594
100.366223550939
100.366723816895
100.367303682895
100.367602906556
100.367950722412
100.368334664606
100.368837911016
100.369221051533
100.36950135801
100.369743614008
100.369977510902
100.370225236791
100.370427469945
100.37059705117
100.370760104833
100.37070727243
100.370429173955
100.370091071206
100.369638880029
100.369784513862
100.369929534455
100.370226891956
100.370633503941
100.370908591371
100.37081357356
100.370885171826
100.371006773098
100.370383661195
100.369951175832
100.370320457511
100.369853863359
100.369301410203
100.368572025923
100.367764914126
100.366715493772
100.36560278706
100.365194147612
100.366626611259
100.367838369121
100.368745645319
100.36952648653
100.370098084192
100.370564780368
100.370900188304
100.370682250403
100.370999703279
100.371147660616
100.371260462693
100.371215577138
100.370991383625
100.37106663296
100.370776402575
100.370918648068
100.371693386512
100.370262804529
100.372415970549
100.372887235546
100.374360084696
100.37308836194
100.372991302987
100.371980627442
100.37146984501
100.370710022744