/*--------------------------------*- C++ -*----------------------------------*\
| =========                 |                                                 |
| \\      /  F ield         | OpenFOAM: The Open Source CFD Toolbox           |
|  \\    /   O peration     | Version:  v1612+                                |
|   \\  /    A nd           | Web:      www.OpenFOAM.com                      |
|    \\/     M anipulation  |                                                 |
\*---------------------------------------------------------------------------*/
FoamFile
{
    version     2.0;
    format      ascii;
    class       volScalarField;
    location    "1";
    object      p;
}
// * * * * * * * * * * * * * * * * * * * * * * * * * * * * * * * * * * * * * //

dimensions      [0 2 -2 0 0 0 0];

internalField   nonuniform List<scalar> 
87341
(
100.10163519781
100.103647268792
100.100041422991
100.104553298439
100.111570045834
100.111806284418
100.109841640197
100.110442339029
100.110650017823
100.110973292621
100.111142531356
100.110874407756
100.112655218236
100.112201192881
100.114434285273
100.114483321333
100.1119950666
100.108555166737
100.106050673044
100.105716927474
100.105588150979
100.107016776054
100.104822273393
100.106569275363
100.10888383624
100.113035216928
100.107654096743
100.106610432284
100.105852793206
100.105654335696
100.105532497324
100.105954817959
100.106545014566
100.107538722782
100.112781883986
100.108723026948
100.106348310753
100.10452668503
100.106658689478
100.105202680611
100.105387667016
100.105727486694
100.108257856942
100.111690044212
100.11404315815
100.113891570309
100.107140985336
100.106216203946
100.103356153953
100.103458832892
100.103794028078
100.103640163325
100.10357999224
100.103375185627
100.101020444304
100.104423082844
100.107863471245
100.106318534696
100.103055475964
100.102036556901
100.101326281573
100.102006997708
100.101952372117
100.10118019403
100.102097052416
100.103129808229
100.106469209555
100.108076044772
100.10467557426
100.101267182522
100.103705031433
100.1039192515
100.103919927972
100.104054038664
100.103613771458
100.103511847776
100.106522068166
100.107548800066
100.105135485508
100.108331175058
100.111412153532
100.112930455428
100.110786828571
100.110549256956
100.111766914024
100.109927220328
100.107458295602
100.103203084532
100.108666314541
100.09714710033
100.085948155359
100.091955278082
100.093165001536
100.103284306097
100.098118082646
100.099166166987
100.101759493157
100.100739993541
100.100217642761
100.100360215591
100.099661429595
100.104030113226
100.104603964371
100.100443093511
100.100863953276
100.098085297261
100.096941316361
100.09793401687
100.097952645244
100.097012599726
100.098135488062
100.100881352372
100.100585066691
100.104773852269
100.10431288253
100.09983373902
100.100735186489
100.100565128697
100.101027673394
100.102043313411
100.099340211125
100.098205827201
100.103732928688
100.104034700077
100.100695740701
100.104404157466
100.110799809675
100.115789241609
100.108740766257
100.108562987043
100.113379884142
100.128719648141
100.098189747554
100.098756731504
100.083371994668
100.056548663341
100.057438390154
100.053175053741
100.053668882048
100.059816891184
100.090057177854
100.101451018039
100.098239638237
100.097924854787
100.102596118821
100.109236415225
100.091258835928
100.09184883837
100.093181004092
100.102099045618
100.097302837707
100.097300846391
100.102068321922
100.093223158267
100.091922177757
100.091385528054
100.089842554865
100.09032573109
100.093626271168
100.09187593564
100.051981210564
100.054057009657
100.055288124717
100.055056712133
100.054098340907
100.054139433215
100.056270717023
100.056662913855
100.060319431675
100.089668598836
100.084818400988
100.068474049503
100.062756983013
100.062598093099
100.059708870101
100.060660418043
100.055129886361
100.05530347796
100.057658674545
100.061370866811
100.0613810291
100.057676586339
100.055301333962
100.060459694718
100.059556305973
100.053237543434
100.054116147952
100.060513516563
100.060938994023
100.060061913646
100.0597483313
100.060664444267
100.060515710667
100.059643548209
100.060745674378
100.060826898972
100.061498079677
100.061664067352
100.061024924866
100.056306547665
100.057110887926
100.057103369744
100.056358865229
100.055296129404
100.056420297303
100.05603924093
100.059512751664
100.060664628355
100.061423196949
100.061729277201
100.061051512339
100.060976335497
100.061663466647
100.06155012362
100.059404415425
100.059160156395
100.059274114686
100.059461890873
100.059562789968
100.059448129627
100.061248903081
100.060363666422
100.060347766968
100.060943047318
100.060427916309
100.059505473312
100.060660124742
100.059123794464
100.059011293347
100.059205983374
100.059300830123
100.059105353087
100.059140619307
100.059401776765
100.056964450464
100.057017383851
100.056946292443
100.057056667169
100.057131290781
100.057224213559
100.057202066781
100.05718461998
100.059420616679
100.061213252951
100.061521021887
100.061320032811
100.059303218474
100.056993086902
100.056912247096
100.056790057573
100.05682400144
100.056838323668
100.056788335827
100.056844308653
100.054852117691
100.055009134254
100.055044910339
100.054933005465
100.055048238674
100.055202166508
100.055345430211
100.055341890708
100.055330530784
100.055309083427
100.057164488104
100.059471776614
100.059884291923
100.057382570968
100.055576499265
100.055099656872
100.0549375917
100.054839577922
100.054940838366
100.054944924317
100.054819647627
100.052794464364
100.052766299969
100.053119083922
100.053124181653
100.052904975799
100.053042842907
100.053410146008
100.053677528476
100.053660862659
100.05366154764
100.053696600189
100.053384432092
100.053000239516
100.052910584318
100.053141117167
100.053134708252
100.050786797175
100.05013067214
100.050026082449
100.050687499078
100.050787361745
100.050352302438
100.050489148206
100.051174590835
100.051643563721
100.051634900717
100.051673577055
100.051764215853
100.051274111008
100.05054684583
100.05046016029
100.050870169779
100.048434205608
100.048215950038
100.046813197008
100.046525642179
100.047961179726
100.048298846898
100.048140309635
100.048347224277
100.048864237509
100.049699581694
100.049418985194
100.049557175987
100.050018584212
100.049216002696
100.048623120998
100.048366102013
100.043673595194
100.037977601101
100.036754439919
100.039520318805
100.039695177391
100.037967254797
100.038369049759
100.043434175965
100.044517829778
100.041334072031
100.044216005659
100.04576779059
100.046071513226
100.04501243639
100.042116590197
100.045145219849
100.066719214328
100.066117147673
100.067194605334
100.069589768537
100.077138786912
100.067061987334
100.066784175101
100.0760622254
100.073772761016
100.066656884338
100.073519296239
100.085745231746
100.084172072848
100.073116972661
100.064394320721
100.063099485872
100.060477234676
100.065235249701
100.067606027142
100.072828151932
100.066444004309
100.059146266487
100.0586510992
100.055791777514
100.050678736734
100.049783813802
100.053981816578
100.057262458934
100.058179443477
100.061716475142
100.075118702343
100.06865334865
100.072876281377
100.066287449887
100.067818486389
100.062023964214
100.073279574586
100.071710325678
100.07045741738
100.075518122193
100.095377401282
100.13226886124
100.175861818831
100.226578174505
100.277082861429
100.331103533403
100.37375062962
100.406368269199
100.445532661841
100.470448416145
100.484780774617
100.493661438778
100.459887572049
100.464170137289
100.467956536469
100.469056623747
100.466808270383
100.465011598812
100.467918891755
100.475890614049
100.473227371915
100.475227264872
100.478494084991
100.48019162731
100.481464704967
100.479229588389
100.479381712236
100.457302169049
100.470698386046
100.485359463822
100.47350031415
100.46612889949
100.455062941523
100.455038942715
100.459743673774
100.45368104937
100.435517572296
100.442686123931
100.451726305938
100.453660080914
100.445138021314
100.445813471387
100.450486623493
100.459905945116
100.458033726391
100.471573669753
100.421429288507
100.434205307154
100.440041405935
100.441096175724
100.436472134529
100.422368800221
100.427017216542
100.429546394217
100.422543248196
100.417798421622
100.421436750958
100.424835352355
100.423905887084
100.419310333035
100.410802850512
100.414922543223
100.425232528288
100.425101377895
100.467194337446
100.463244497273
100.410536563455
100.414717872217
100.410782923283
100.405843414384
100.41359201425
100.401217897404
100.395146589206
100.411124313407
100.417958956074
100.41564375553
100.416154764073
100.413311426187
100.422448311502
100.41438823964
100.411149941906
100.422373090881
100.434596246191
100.4594932341
100.450374548902
100.460850789196
100.463276303547
100.463748947041
100.463388704739
100.465409481001
100.466879548309
100.469254611099
100.465516896839
100.46561342611
100.467443826499
100.469882914521
100.462356684333
100.468241094528
100.452080068278
100.440175457487
100.439764973505
100.453780684909
100.447780907027
100.439144068399
100.434563945356
100.422761635742
100.41599059424
100.440132582777
100.456911844931
100.455966548106
100.455469970196
100.40770167257
100.407220596306
100.406058766573
100.399556661885
100.392596823503
100.399437215405
100.397495868318
100.39118640514
100.394986815929
100.396979959423
100.39383579229
100.396099702263
100.393105630612
100.396004508166
100.3964539304
100.390450950759
100.395256032821
100.393857397351
100.395924092671
100.392461058589
100.390547654456
100.398473450819
100.402933649628
100.412936513721
100.424693471416
100.427274778525
100.423643276405
100.416781988868
100.423738334267
100.457147172923
100.486780116186
100.471778875603
100.492628381862
100.509038256435
100.473746325501
100.451458109927
100.453162063012
100.468789651565
100.472161853065
100.469618771275
100.502730443901
100.492896548006
100.500423995279
100.485334345601
100.492505662691
100.482606890737
100.48132658859
100.486322457942
100.481863804165
100.493250206552
100.474243608814
100.488536893506
100.484933613535
100.486941144428
100.490613912631
100.500405528919
100.510831171416
100.513086257737
100.497409256854
100.496218892336
100.497661529428
100.50196905191
100.487591759245
100.458182999003
100.425646618234
100.427369603545
100.436351289103
100.442779301983
100.441480278462
100.432858370701
100.420988032798
100.410981468536
100.41214263544
100.395507630384
100.38913477433
100.400866954323
100.404196768929
100.415554553629
100.420743085535
100.415269378779
100.405406500981
100.417593013703
100.423865513236
100.419809164558
100.41987209556
100.415355624597
100.461271291562
100.460932680939
100.46416508078
100.417270876936
100.426557509726
100.419163878605
100.418843450677
100.415770167814
100.413173883157
100.424272107762
100.446531017787
100.451082817486
100.44926122271
100.404748166477
100.406949033893
100.386760669281
100.392676507567
100.408576024692
100.412194666636
100.404115362095
100.387960122905
100.392288759625
100.39719777614
100.410936959613
100.418279112446
100.431564948754
100.462280355231
100.497172382605
100.495492964967
100.479344678898
100.483575071287
100.486115223984
100.497154688048
100.502615623919
100.488787092429
100.489953875038
100.483056745604
100.511218571513
100.508716557721
100.512236468838
100.506149571972
100.490826371346
100.490976409684
100.504220756731
100.501456738017
100.497016400923
100.497830086356
100.501226234549
100.499272271683
100.499597764356
100.480053320538
100.490148897475
100.466241502872
100.452490798343
100.451164501298
100.453011169621
100.466539081659
100.444509150068
100.450764236188
100.448372659017
100.445637026378
100.440479911422
100.436586146487
100.469115694787
100.468565359675
100.465416084429
100.461818829134
100.452383353669
100.466160261549
100.46685112971
100.467135561725
100.466612727067
100.466068913207
100.463559386926
100.461032851871
100.462559418095
100.464247809704
100.464477203679
100.462985794999
100.464296481619
100.464066077247
100.463714592049
100.463268490803
100.463145270648
100.46260119173
100.462627513128
100.463610418138
100.463940824713
100.464231847373
100.462956735351
100.465988413256
100.465028336262
100.465122041467
100.464769441252
100.464256962576
100.46355085825
100.463007706106
100.462296361764
100.462640339341
100.46425709652
100.465825922355
100.464297078363
100.467011434771
100.46663662526
100.466512943822
100.46731714529
100.466488271875
100.467380856168
100.466177745521
100.466567833039
100.465419269918
100.466092902257
100.465431361086
100.465782425485
100.465585034679
100.465646458931
100.465258725525
100.464227303674
100.463585459322
100.462300696618
100.463709436804
100.464030107663
100.464608661015
100.463366455271
100.464023949788
100.465377061271
100.464473421284
100.466987897434
100.465913839717
100.46690680656
100.466686188356
100.46721900867
100.467374130696
100.467129163252
100.467278592513
100.46718217419
100.467433395819
100.468808118005
100.467655088302
100.469314701931
100.470468998425
100.471502048447
100.472455021354
100.471344533102
100.470958222508
100.468446411216
100.467461983148
100.466630239117
100.468621559449
100.470614544548
100.471450319913
100.471775647977
100.47179493879
100.473262788907
100.473248702042
100.472802677596
100.469601473243
100.471129954784
100.472325023127
100.472860748045
100.472510670128
100.471187132679
100.469724286979
100.467288959018
100.465453610499
100.46813393046
100.467962821639
100.466627727795
100.466173344114
100.46715774124
100.46694409985
100.465996608565
100.466679402652
100.465039571862
100.465538322883
100.464352675067
100.463036179603
100.463150472971
100.463918615443
100.462515980934
100.462270720983
100.461194318144
100.461804213218
100.463359701467
100.461784990643
100.460165081746
100.459729731873
100.460720499519
100.461489411545
100.461771263884
100.463349631532
100.463241602496
100.465145377081
100.464707737009
100.466152844797
100.46641501003
100.469848149449
100.466670976449
100.468716022133
100.471162425572
100.472545577206
100.472311064767
100.473887981544
100.474925713588
100.473282557934
100.47421510128
100.473168693562
100.469822616978
100.465350339007
100.46994711344
100.467230950737
100.465437958914
100.464827450584
100.457196470515
100.458626864788
100.457579985379
100.464276926027
100.461052247474
100.462792161445
100.461705982741
100.459029063508
100.460772920748
100.458640365765
100.456768847166
100.458729895122
100.456141215683
100.455389444541
100.457329803572
100.455728421424
100.456213804412
100.456632644469
100.456964186365
100.457056541881
100.461270553292
100.463527184389
100.460717912025
100.464925381959
100.462867490684
100.463662641446
100.464082675097
100.465009458246
100.465687913036
100.465495331299
100.465339702015
100.466107220277
100.466605258015
100.466629347894
100.465904383692
100.466293012594
100.466166679141
100.46636593181
100.46621887911
100.466484609883
100.467464314507
100.466387820363
100.467317686811
100.466706881683
100.467535275919
100.466102183138
100.466667696147
100.466599869593
100.465555578161
100.463220100866
100.463520710287
100.464009658648
100.463124484318
100.460869702754
100.461463608925
100.464554513739
100.464544219644
100.463396780253
100.459983576332
100.461629443756
100.46594822721
100.465509188318
100.464993391062
100.462587743787
100.461438546226
100.465337069884
100.466381588796
100.466164554874
100.466705320188
100.466101596684
100.466095369594
100.465768174464
100.464891900735
100.46289925655
100.461659326254
100.461611670517
100.461388410597
100.461929626213
100.46318179303
100.4629600754
100.463847798097
100.464359967926
100.464091043385
100.463481331204
100.463242010802
100.463794542946
100.46388204911
100.463457046013
100.463118010245
100.46286121141
100.462557075587
100.462613283769
100.462486167876
100.463340733472
100.463247180624
100.463410734264
100.464760899183
100.464867073346
100.465465083746
100.466007692706
100.46534513022
100.466398860326
100.465830552547
100.466079495702
100.463516001178
100.464407075823
100.465697672415
100.464978187494
100.46489107018
100.462508857642
100.461588786504
100.461758632216
100.462486334604
100.461882033693
100.462728671732
100.463625821141
100.464437646042
100.464205782747
100.464458449821
100.463715243446
100.463607096433
100.463632710388
100.463621968588
100.463512905388
100.463436333435
100.463233002993
100.463015962617
100.462930667669
100.462910796117
100.462899165825
100.463651888328
100.463481586467
100.463819171216
100.464213576814
100.464450115151
100.465304346353
100.465069547773
100.465179500125
100.465595490125
100.466342646065
100.466090406357
100.467361829544
100.466737049397
100.468084520384
100.467511265575
100.467732549975
100.46809840644
100.467451747546
100.466359119675
100.465280803921
100.467036256066
100.466368395004
100.465126129136
100.466138296954
100.463345339339
100.462027145232
100.456028958317
100.450424166238
100.453514940248
100.452913040266
100.451186785796
100.448365743493
100.447356329566
100.449483212532
100.450618909865
100.45055978795
100.45310105087
100.453691554663
100.45570097863
100.455266481651
100.457337115114
100.446859603792
100.449620690591
100.45201059656
100.455109779291
100.460077005191
100.465701390512
100.469932924428
100.466173145505
100.461879247843
100.446354245484
100.430840491858
100.453283451166
100.445895308276
100.438409336582
100.435266312468
100.434904694641
100.432932971115
100.421254381219
100.433720767511
100.448059630224
100.441228733977
100.447273561491
100.442366108523
100.438093879648
100.444300265306
100.438512903298
100.437235651094
100.44252451401
100.435729542865
100.438030555314
100.434025412074
100.441777442695
100.437895112484
100.445913652743
100.44770083341
100.452714366155
100.458330253898
100.462903780844
100.466915013831
100.467079852348
100.466735111714
100.467355307576
100.467996738883
100.465677505715
100.465893710801
100.468824048011
100.469218611563
100.467132662135
100.466760528589
100.465532294155
100.464067433991
100.456310099678
100.443300263742
100.4305879296
100.421037023803
100.412577885883
100.421889286149
100.416455984919
100.418914201827
100.411678620048
100.408355338583
100.406424052688
100.406972397711
100.410334940384
100.410728429746
100.418416603946
100.390794881478
100.380970649578
100.385709844373
100.393155995054
100.414731766945
100.41719738031
100.401259809002
100.385221757117
100.380897889215
100.3512459175
100.35517781942
100.359499390639
100.372758450678
100.363790387391
100.343713790233
100.308841802291
100.291464419661
100.327723467161
100.315195301813
100.311851610673
100.320130389259
100.349230328575
100.354740058595
100.341971980045
100.36749524929
100.388618727866
100.387618320583
100.385525507529
100.385018059115
100.384042962274
100.375364016219
100.399299852485
100.382125704227
100.396435263548
100.393400503556
100.399974912092
100.408936283356
100.422106247989
100.446533659544
100.453512503105
100.460205802159
100.466653997694
100.466131884995
100.460001433071
100.452261233523
100.43047728692
100.412109363361
100.378074455883
100.354971178542
100.340519625687
100.332041970575
100.33011511785
100.347509106602
100.336754877438
100.339401141141
100.328412376136
100.330919901374
100.329953490562
100.33002835038
100.335951933461
100.295890110158
100.286613585005
100.297274929523
100.32604631882
100.37032295952
100.399165045061
100.422669146386
100.441127665832
100.450930755785
100.456121811015
100.458046744877
100.457534923792
100.464423126913
100.497829170101
100.481201521124
100.476058372785
100.475383148649
100.478559473335
100.47731398289
100.483059427608
100.501134102682
100.488899016302
100.476842495979
100.474117446245
100.447516999597
100.42967569483
100.428812725329
100.433469392757
100.449938804276
100.438060304527
100.432290574278
100.427315654186
100.416795908072
100.417708665024
100.429569023425
100.431135865519
100.420372736006
100.42339429057
100.43443575221
100.438587985777
100.440679155828
100.451675611927
100.416082857459
100.413862660841
100.410068713432
100.403347043736
100.404241599934
100.413314896276
100.405943087598
100.404122452945
100.397345360988
100.391661955753
100.39911890818
100.40558032547
100.455152865901
100.46127518353
100.458755643409
100.461425449107
100.458957005258
100.466897255261
100.465620971772
100.467775077322
100.467712588457
100.465410933257
100.464751880988
100.465164304971
100.463246470525
100.464279814318
100.464455778977
100.464664870355
100.467504850124
100.469109728803
100.467829160123
100.468089424277
100.468355399125
100.468812753132
100.468749363085
100.468084304951
100.466847911428
100.465915384054
100.464910533893
100.46438429485
100.464844064895
100.466409066602
100.465376651218
100.464313166916
100.46407696313
100.46478467375
100.46595757789
100.468362014893
100.462786183295
100.463882699577
100.463770886463
100.46498787626
100.463792200475
100.46413438456
100.463190980113
100.462503383984
100.462608620183
100.462993146469
100.463357683996
100.464124192689
100.465292669555
100.464554856362
100.46434743848
100.464269294949
100.464241123796
100.464433628778
100.464466339234
100.464381929731
100.464085717698
100.46405419432
100.464061112039
100.464031420459
100.463589513566
100.463830082904
100.464002174953
100.464084330556
100.464457098073
100.46459330517
100.464999919436
100.464779378371
100.465333685211
100.465798406532
100.466365987133
100.466793201619
100.467209907197
100.467509246629
100.467757686691
100.467241942969
100.467187088459
100.466728906577
100.466266368569
100.46580612539
100.465411219368
100.465724081758
100.465332195987
100.464850145704
100.464705171466
100.464325600678
100.46425911247
100.463949890485
100.46341742983
100.463198504463
100.464052105791
100.464567588666
100.464546117873
100.465114346272
100.465083614397
100.464507468922
100.464512201134
100.463926614511
100.462972266216
100.462413266203
100.461711678058
100.463620583477
100.468015931613
100.466431521281
100.462733864211
100.464531124127
100.464555736113
100.463075654762
100.463824401417
100.464588178557
100.465429185006
100.46537909559
100.4655820927
100.465942484579
100.466010090435
100.465586266128
100.465916442173
100.466186007311
100.466282573996
100.465950927059
100.46646572548
100.466782968804
100.467043265668
100.4674813408
100.467579392689
100.467842079286
100.4681873361
100.467692594208
100.468104929605
100.468121280845
100.468768663339
100.468138287231
100.467888327912
100.467651376531
100.467684031249
100.468061968081
100.467588660159
100.467727556623
100.467242031925
100.465936385586
100.466909628493
100.467246841367
100.467692684759
100.467415660834
100.46753518995
100.467612934851
100.46771354372
100.467839030667
100.467845165054
100.467981998814
100.467851227611
100.467568080573
100.467577068921
100.467246482312
100.467015383751
100.467000190794
100.466593488503
100.466317546106
100.466284580219
100.466426358376
100.466161869026
100.467151363765
100.467314351515
100.467610208511
100.467261545532
100.466330314898
100.465944498585
100.466333176084
100.46754766643
100.467160032984
100.468550821895
100.469893745074
100.468923961721
100.469734910657
100.46748810805
100.467782033858
100.468138942899
100.468167729191
100.468449295933
100.468872299695
100.468618765547
100.467635024373
100.467687809275
100.466983098092
100.466642234385
100.466738248393
100.466599858357
100.466670248182
100.466795057457
100.466790111364
100.46697251786
100.467206078199
100.467338828996
100.467479043883
100.467600709474
100.467791490683
100.467556101057
100.467756464421
100.467541286527
100.467552322635
100.467468205157
100.467388111922
100.467427712493
100.467172895122
100.46693587804
100.46695965242
100.466558046327
100.465145979888
100.465204987335
100.465299173394
100.463921186267
100.465442638575
100.465381189252
100.465740347832
100.466428358116
100.465711359887
100.465629142889
100.465460985732
100.465039337774
100.464754357162
100.46542834296
100.466030182178
100.46742991996
100.468625893248
100.469038732152
100.46825985645
100.468008091133
100.468264550895
100.46848448985
100.46864853127
100.468003280272
100.467618721989
100.466757731852
100.465832919778
100.465647285083
100.465912774073
100.468915644848
100.46590794218
100.46490732159
100.462419310847
100.462057909193
100.46226067233
100.46208697082
100.462096648688
100.46210743467
100.46212847923
100.46208339796
100.462822319082
100.462432989529
100.462311236856
100.461876395412
100.462510846358
100.463990745886
100.463143666029
100.463622794283
100.464458509578
100.465578063862
100.469989718267
100.466162893866
100.464916563849
100.463856865073
100.464549673825
100.465506207702
100.467947117765
100.472412154941
100.47142392557
100.471841658951
100.469458861678
100.470178464192
100.468987433078
100.470765602995
100.467137649838
100.465377142762
100.464399845555
100.464234623333
100.464941430677
100.4652868078
100.466196965747
100.467053854356
100.465493684725
100.46239452015
100.462625821792
100.462726672156
100.462896443331
100.463213010028
100.462741984065
100.462589582005
100.462058047526
100.461862554279
100.461718328405
100.461605656001
100.461853298658
100.461938373778
100.462066718109
100.462105072396
100.46240890873
100.462170945593
100.462637939983
100.463131387683
100.463495566767
100.463751187059
100.463877595127
100.463377209497
100.462813822222
100.462028894358
100.462404604164
100.462080546967
100.46191430881
100.461777425874
100.461677562369
100.461413887708
100.46143663601
100.461523366943
100.461714017613
100.461693469091
100.46191722915
100.462163514355
100.462311630688
100.462094781174
100.461892599695
100.461750108098
100.461935126186
100.4617213011
100.461454681849
100.46252774023
100.463162348974
100.463022684663
100.462344807231
100.462201641024
100.462231819593
100.461984431876
100.461828225558
100.462009858512
100.462162151174
100.462727715101
100.462836509945
100.463027629855
100.463766662128
100.463181093068
100.464208362973
100.463727587114
100.46352032451
100.462787127542
100.462705634481
100.462670586976
100.462496516988
100.462632103524
100.463337387921
100.46347983664
100.463471322965
100.463754240816
100.463616581039
100.463016165349
100.462970376099
100.462888897984
100.462784235984
100.462531530033
100.462427408609
100.462337566088
100.462188020508
100.461895468331
100.461768846926
100.461898742836
100.461641200961
100.461482691472
100.461431416918
100.46118491877
100.461494488515
100.461477684778
100.461449105847
100.4610852528
100.46136584705
100.461188220607
100.461383346826
100.461498564023
100.461825670326
100.461605721347
100.461132265328
100.462037282433
100.461884766473
100.461924092831
100.46206819775
100.461892273532
100.46193897614
100.461954736585
100.462037264249
100.462146701631
100.462086790418
100.461985509794
100.462057415054
100.461914095635
100.46183783602
100.461038231171
100.461689801112
100.462656250508
100.46327733202
100.463717598774
100.464493160582
100.464883222908
100.465486592563
100.464844482421
100.464245766137
100.463773688184
100.464205411268
100.463987329891
100.463685346149
100.463587291715
100.463229340697
100.463132230501
100.463029559612
100.462970381367
100.462826265888
100.462611056369
100.462505662138
100.462511224663
100.462331697944
100.462122836482
100.462049353954
100.462212397439
100.462150957772
100.462071095825
100.461990063157
100.461757197777
100.461779060564
100.461917062967
100.462495382218
100.462601828511
100.462844230719
100.461808345756
100.461467124569
100.46166911478
100.461634988698
100.461203937208
100.460988735669
100.460975878734
100.461291470377
100.461712112218
100.462258913183
100.460784871303
100.462567158066
100.46260542312
100.462243124843
100.463308843654
100.464523685635
100.464967999995
100.465411947943
100.466464727131
100.467764520196
100.469500750674
100.469173213958
100.47408787564
100.469303469244
100.484773463353
100.48106342483
100.449255464249
100.417392463027
100.379846629531
100.359214043334
100.373501222352
100.370830285034
100.369071735847
100.369466240854
100.370330891674
100.371214206285
100.372303242257
100.373677801499
100.375177906571
100.376539917833
100.377633275583
100.378413023458
100.378855706149
100.377702765233
100.376379709747
100.374915177848
100.373393790495
100.371909088875
100.37053154347
100.369316924871
100.36827595131
100.367396109448
100.366650831464
100.366032492595
100.365592222494
100.365441930314
100.365716567476
100.366525150687
100.367954733309
100.369723689495
100.371371102671
100.372243813328
100.372349849946
100.372381082468
100.37249519175
100.372577971262
100.372587273446
100.37264553398
100.37269508624
100.372752095544
100.372801885826
100.373058458119
100.373176838385
100.373244474181
100.373117585591
100.3730200522
100.37299981025
100.372825816919
100.372728029579
100.372686106571
100.372632069061
100.372637861743
100.372565552158
100.372508023112
100.372496958214
100.372444377163
100.372386273805
100.372240261477
100.372288189218
100.372387653986
100.372419913676
100.372445296814
100.372495099511
100.37254796301
100.372532528403
100.372723098657
100.372812110071
100.373021462174
100.372936792643
100.372857774095
100.372656884787
100.37267688588
100.372618945584
100.372784292264
100.37266619122
100.372606659482
100.372452984095
100.372446360157
100.372395532503
100.372353333118
100.372309788796
100.372314292228
100.372213733418
100.372099177519
100.371980107048
100.37189006823
100.372020421145
100.372147328262
100.372189435918
100.372274741353
100.372262448713
100.372280115184
100.372336967956
100.372398499106
100.372408917127
100.3725526654
100.37257602282
100.372574467183
100.372545374506
100.372374344335
100.372494056794
100.372372978908
100.372475917446
100.372466635356
100.372340864271
100.372340419903
100.372298592167
100.372260737685
100.372215067743
100.372224147934
100.37213685044
100.372085878659
100.371940564541
100.371705467581
100.371970224767
100.372091879913
100.372119355722
100.372178339331
100.372177163152
100.372216536768
100.372239320991
100.372270329875
100.372239594764
100.372328254153
100.372274380531
100.372308962902
100.372343490044
100.372307105678