/*--------------------------------*- C++ -*----------------------------------*\
| =========                 |                                                 |
| \\      /  F ield         | OpenFOAM: The Open Source CFD Toolbox           |
|  \\    /   O peration     | Version:  v1612+                                |
|   \\  /    A nd           | Web:      www.OpenFOAM.com                      |
|    \\/     M anipulation  |                                                 |
\*---------------------------------------------------------------------------*/
FoamFile
{
    version     2.0;
    format      ascii;
    class       volScalarField;
    location    "0";
    object      p;
}
// * * * * * * * * * * * * * * * * * * * * * * * * * * * * * * * * * * * * * //

dimensions      [0 2 -2 0 0 0 0];

internalField   nonuniform List<scalar> 
79587
(
99.6187405738837
99.6122464614742
99.5987581926219
99.5710569857927
99.5744324088413
99.5810064420803
99.5909770510639
99.5741049606757
99.5583732450854
99.558308442363
99.5750002979193
99.5929866268731
99.5838743692159
99.578474692417
99.5705552764473
99.5659696853612
99.5682587717229
99.574812772547
99.5917772054962
99.5971295743745
99.5885808264163
99.5724452428451
99.5694119947935
99.5770506876818
99.571775502612
99.56904578786
99.570848611328
99.5577129703054
99.5530412086929
99.5592468317747
99.5590162309703
99.5527319689995
99.5574617487246
99.5708700300075
99.5689352458142
99.5715993917836
99.5770198254283
99.5695480889127
99.572618319328
99.5884687672786
99.5969822694344
99.5910633274302
99.5736161207498
99.5662722130874
99.5621158458029
99.5656682738234
99.5675884363803
99.5617823274985
99.560665200841
99.5648469707369
99.5966673166567
99.6016763567295
99.5894420319904
99.5570876207081
99.5611711258744
99.5769889994075
99.5699258274309
99.5678212264919
99.570069947067
99.5487076761543
99.5355428766031
99.5577385956953
99.5579969153911
99.5361589591294
99.5492385681073
99.570085086643
99.5678133735413
99.5699379719217
99.5771284611329
99.5611383438891
99.5569750670405
99.5897473308291
99.6020858229968
99.5977717849057
99.5659970639568
99.5625759763459
99.564357785094
99.5715441904557
99.5751080255593
99.5792434567317
99.5970269739504
99.5630048858613
99.5248376846167
99.5241823199941
99.5617611266068
99.5954381891101
99.5763428194187
99.6003773015218
99.6041657834579
99.6038713555329
99.5921806867927
99.597802245983
99.6025013636171
99.5955747539373
99.5916854278804
99.5932342206593
99.6057380140266
99.6034191024497
99.5935810007115
99.5708973142633
99.5767699801186
99.5852110038073
99.588725723421
99.5881466002577
99.5780256523497
99.5642308851272
99.5506473785615
99.5653142677809
99.5654387944224
99.5510249283092
99.5645196832929
99.5781367068628
99.5882872403025
99.5889320879625
99.5855284788002
99.5769324208406
99.5709728698816
99.5941557543263
99.6042550513768
99.6074897696011
99.5947193970029
99.5932963440247
99.59707185572
99.5999754059193
99.6008044610328
99.6021885950299
99.6051513287007
99.5831252933905
99.5542158857577
99.5539117696198
99.5821774286941
99.5880432382939
99.5913891860351
99.5921853491709
99.5920910932415
99.5921989986977
99.5923048836606
99.5910740652319
99.5930335079226
99.5939570640518
99.5950923332838
99.6048714412981
99.5989336073745
99.5971760127996
99.5860241752577
99.6018069614313
99.5965953247073
99.5957928869072
99.603640666868
99.5721537647809
99.5801558683549
99.5801439060971
99.5722672820621
99.6035271162275
99.5959005706258
99.5967847481907
99.6020915435702
99.5953006099411
99.6032405622886
99.5980368420356
99.5909562077307
99.5944116785807
99.5929483569249
99.5928803947505
99.5942733726588
99.5949619553656
99.5939835475962
99.5968953113268
99.5964759651388
99.5951071943256
99.5962620972016
99.5998425550934
99.5999143647582
99.5964879663691
99.5953007456071
99.596827699221
99.5942264935649
99.5931418363196
99.595265543614
99.6007638065899
99.600466405742
99.5997129456544
99.5996195206129
99.6001985354241
99.6004247972201
99.6010593002885
99.6018233453198
99.6035276938768
99.5983663358347
99.5996083851079
99.6001750487095
99.6002947208737
99.5998261112195
99.5987102977304
99.5973514540902
99.5943837559139
99.6014496002457
99.6083416262059
99.6073012513561
99.6065843859909
99.6062909752783
99.6062700244894
99.6064988969782
99.6070821057535
99.6080348203434
99.6085361692821
99.6090405013519
99.6091930628015
99.6039247171455
99.6034306255803
99.6035454415626
99.6042493671764
99.6039937385986
99.6022644096473
99.6088831534897
99.6151262466376
99.6149100238905
99.6143505399419
99.6139005630011
99.6137444335421
99.6137669918277
99.6138608132507
99.6142371265432
99.6147591826799
99.6149688583203
99.6150416938231
99.6151680438512
99.615305079336
99.6092096359546
99.6092873565161
99.6094062360398
99.6093469068852
99.615150219459
99.6214421502906
99.6215606476391
99.6216267536174
99.62147025647
99.6212856107344
99.6211750167395
99.6211621742751
99.6212516722769
99.6214517688493
99.6216202521926
99.6215888924068
99.6214691309413
99.6214640771911
99.6215016145754
99.6214677076242
99.6153156759995
99.6152141709297
99.6214300672386
99.6279092718586
99.6280121580924
99.6281900057134
99.6283661150549
99.628388060328
99.6283508324157
99.6282970895974
99.6283002679727
99.6283901834242
99.628498182333
99.6285209134806
99.6283590084858
99.6281226979484
99.6279355798875
99.6278388416559
99.6278391701697
99.6342858598111
99.6344214577476
99.6346130871367
99.6348581155986
99.6351257249107
99.6352323661653
99.6351530113174
99.6350413257171
99.6351184933938
99.6353229969475
99.6354607581261
99.6353942519106
99.6351234260373
99.6348150119533
99.6345285639709
99.634298732785
99.6408606068436
99.6407928729007
99.6409291972579
99.6411846426863
99.641561393986
99.6420209067242
99.6423137594983
99.6421600806781
99.6418510129561
99.6419315028994
99.6423629523194
99.6425908354751
99.6423129017007
99.6418486035437
99.6414748624201
99.641154793079
99.647983253802
99.6477138915191
99.6476138308618
99.6477611149034
99.6479661156887
99.6482023598775
99.6489307003879
99.6498324585035
99.6499644716491
99.6494557469419
99.6495121279577
99.6501281654546
99.6500811751688
99.6491748743964
99.6484813441893
99.6482475160801
99.6558337006009
99.6558604956188
99.655447503635
99.655371595449
99.6556988794961
99.6556469018738
99.6550358204825
99.6555430609789
99.6575950518546
99.659043077265
99.658517251522
99.6585718757188
99.6591933797137
99.6578136156164
99.6557993999758
99.6552802203347
99.6623932720064
99.6640327801517
99.6644433165096
99.6636686659201
99.6636437717837
99.664376283866
99.6639545878971
99.6623219663386
99.6618236667788
99.6641868943306
99.6676088397895
99.6683986175709
99.6683863525716
99.6678577770975
99.6643538536162
99.6620387263386
99.6762396414284
99.6767518705365
99.6789038009587
99.6797281865827
99.6784777374994
99.6784783455136
99.6797928659274
99.6789474273061
99.6768246254388
99.6762921569668
99.6780905635639
99.6798251065995
99.6777059282431
99.6776010255708
99.6797038055808
99.6779594968705
99.7188805305308
99.7171526517279
99.7167336766902
99.7179769954041
99.7202506279411
99.7192888095604
99.7193078308989
99.7203745548605
99.7181578787735
99.7169926193542
99.7175167419736
99.7192810726667
99.7188460246162
99.7402378172093
99.7655090075795
99.7655410359997
99.7400786403928
99.7049253038186
99.7050472099978
99.7485297481014
99.8351008664238
99.8335041760193
99.8334072579406
99.8166567928011
99.7997204397269
99.7967723098844
99.7919888893472
99.7912113664249
99.7968449322132
99.8031754297958
99.7954180783131
99.7954887873108
99.8033109221987
99.7971988043899
99.7915445136729
99.7923959055579
99.7970456050504
99.7997216596936
99.816406396229
99.9025776470235
99.9314707814811
99.9313386999785
99.9027662785731
99.8971812099753
99.8973091118099
99.9357335692992
99.9839555931168
99.8894767037288
99.8902654981193
99.9377097102201
99.9011509394615
99.9200615707211
99.9556638965228
99.8955713114139
99.8957227607952
99.9558951962553
99.9203727588176
99.9015082952333
99.9380554768948
99.8906671834634
99.8897747380383
99.9358325314371
99.8972700565805
99.896922492636
99.9983597455812
100.081048922583
100.044331372786
100.044154053594
100.080941343739
100.071806525834
99.9983271407391
100.075492984516
100.140936905443
100.131697414454
100.158793798696
100.159937691072
100.113873153525
100.076154720908
100.089712415996
100.009350338648
100.08117307433
100.140802969856
100.136583299198
100.130047876938
100.052777412837
100.052892891031
99.9846594331972
99.9644745919925
100.060737295458
100.129762534318
100.128361484519
100.131810316437
100.082209349126
100.007053156568
100.075189844861
100.027857075399
100.033376420188
100.05611371191
99.9879539522544
99.9880355843821
100.056140724124
100.033492555486
100.02809343224
100.075410778401
100.007319214911
100.082458334699
100.053316207535
100.052859464677
100.090016628103
100.07644117459
100.07206791183
100.114040584463
100.158858879702
100.131773883574
100.14732603931
100.170029650327
100.169991589191
100.147280956559
100.118549555443
100.118639570391
100.154795696632
100.193979652317
100.196867942111
100.196834402763
100.207818056682
100.197039978052
100.175661171227
100.200243022345
100.220286748661
100.221729227153
100.230333991711
100.227811394174
100.210951028296
100.185781113473
100.184394037199
100.193388719908
100.205295928174
100.177308594372
100.175560631837
100.174515791223
100.176283082683
100.200316471559
100.202076596953
100.169903715101
100.126864353168
100.142970369875
100.100306853304
100.156287781405
100.130360072539
100.130363785605
100.156299391093
100.100384171765
100.143015197279
100.126984191947
100.131956437062
100.12843789941
100.130226771654
100.136728740953
100.160093661135
100.184473513937
100.18585609545
100.197106845065
100.207867058689
100.221757635839
100.226764809909
100.234798653559
100.234795899698
100.22675361821
100.217108519011
100.217122811432
100.228039107323
100.244365197943
100.246064756154
100.246063003949
100.250315440839
100.245302837235
100.236520963247
100.246711595445
100.258572742409
100.259238239726
100.26396610527
100.260679573919
100.253224193965
100.241440731154
100.247934600676
100.248058964649
100.237092673282
100.227830198551
100.230658714559
100.210760631327
100.226563463683
100.241124996534
100.24162065922
100.244935811599
100.250328817852
100.236892003547
100.221958569709
100.218813631618
100.201404666996
100.201143990912
100.203981257997
100.220870362778
100.216490322911
100.21508616059
100.216724103922
100.200118958372
100.184582156619
100.192278885188
100.173691479923
100.17370453727
100.192297755938
100.18461118127
100.200155723567
100.169961635692
100.202119107627
100.200345907979
100.176327928015
100.174567407733
100.175648357648
100.177428925471
100.193456231157
100.210805848929
100.227856331927
100.22783455282
100.230352024425
100.241454345861
100.245312255699
100.250322611784
100.259248432055
100.262506970329
100.267207490344
100.267208688453
100.262503646104
100.257011042525
100.257014334693
100.26346998318
100.273073236159
100.274142002193
100.274142669642
100.276438320351
100.273594386722
100.268211595261
100.274361459266
100.2815217885
100.281783265299
100.284325798096
100.282233349104
100.277954120329
100.271281134749
100.274654888775
100.274969125499
100.266931146502
100.257360540807
100.257185426945
100.260180253952
100.263577391739
100.253081796423
100.261017397653
100.270710407828
100.271039970651
100.273277536319
100.276575099488
100.268498785261
100.259531066575
100.258398604453
100.249027415846
100.235786114673
100.235730617583
100.218573655576
100.217974064912
100.237053819616
100.252975852838
100.251076491301
100.250580743218
100.247157193214
100.24191614694
100.24222112452
100.248120074455
100.255376635832
100.265162640032
100.262429625594
100.26229854964
100.265286632803
100.265140819027
100.255082291454
100.243306385072
100.24925512756
100.250814550568
100.240829679862
100.227578268339
100.206512635766
100.191564491695
100.208728455076
100.228446761476
100.228411816035
100.227402015669
100.232516476772
100.245318490632
100.248343521499
100.262533530832
100.265176890242
100.27543171107
100.275336365013
100.274896252289
100.27482485117
100.275049248139
100.274937599361
100.274694802297
100.274853721028
100.263130649907
100.26351520208
100.250803139422
100.239420341107
100.223532300858
100.199616124801
100.169452482657
100.146391878086
100.167986733548
100.157320944117
100.187311219778
100.209034617433
100.20483282518
100.199781249456
100.216742514035
100.232389670328
100.227929785722
100.247363830963
100.25968170283
100.266098777888
100.27491819233
100.275058209825
100.284603943845
100.283420633971
100.283304695923
100.284126280267
100.284005299636
100.283748123846
100.283703419535
100.28409110186
100.283976171242
100.284072620942
100.274833800663
100.274834737735
100.26351760119
100.250805662739
100.239422050933
100.223536333692
100.199628974903
100.169466116026
100.14639366787
100.095962277698
100.049799075312
100.041631775945
100.04162178859
100.048624146906
100.049746707883
100.095924606257
100.100501969107
100.127312001061
100.155209815004
100.184394766259
100.16532818558
100.173533607928
100.203267265131
100.200711155542
100.205447274888
100.205453224953
100.227933751673
100.247364916697
100.259682311732
100.26680223819
100.26680193293
100.274593762521
100.283657048339
100.283708836179
100.29069764792
100.291638414418
100.292553504782
100.291766437796
100.290396813697
100.290680384648
100.290146510869
100.290449230151
100.290402041498
100.290339239765
100.29098187457
100.290982159809
100.284072879599
100.28397741625
100.274856218081
100.263136539253
100.250821537751
100.240835688883
100.22759635257
100.206547337787
100.191597087298
100.168010171123
100.15735839107
100.100569879108
100.048715350528
100.039003510752
100.038951934967
100.084710268805
100.131731016869
100.153291030342
100.187649938481
100.187656907395
100.200724555349
100.216758935671
100.232404599624
100.248349114076
100.262535768978
100.266099444529
100.274918406286
100.274594050186
100.283657176758
100.290284896896
100.290284662367
100.294071656329
100.29739277271
100.295970332863
100.296105390992
100.298141246454
100.298347124548
100.297931437005
100.297959302446
100.294448835046
100.297051710182
100.295826134983
100.295826522529
100.297052072228
100.294449276371
100.290339613504
100.290402501601
100.284092674
100.274698563814
100.262866579829
100.249262645702
100.243317220874
100.228463889473
100.208760395269
100.209061638595
100.187351207427
100.18442627911
100.15524079727
100.127334942128
100.08473925817
100.131726718435
100.153305800524
100.168116993784
100.181212483115
100.210581935657
100.232576607101
100.249446423268
100.254704199142
100.267093070848
100.276854867334
100.285231393798
100.291614827303
100.296514834543
100.299808112007
100.301753864354
100.303054879199
100.303938420682
100.304599578823
100.305282384159
100.30598121343
100.306688994016
100.307350638587
100.307927530447
100.308402695484
100.308755341645
100.308949128598
100.308918777628
100.308868052287
100.308606426015
100.30827278553
100.307912939139
100.30740607867
100.30705705149
100.307016912565
100.30726035113
100.307625678275
100.308026698384
100.30841052204
100.308751539909
100.309038585624
100.309266357875
100.309431297634
100.309533238037
100.309581602145
100.309596771017
100.309596740989
100.309601981129
100.309613352987
100.309632654061
100.30966145174
100.309701184842
100.309753321078
100.309818651935
100.309897145676
100.309987862833
100.310088953555
100.310197792883
100.310311127461
100.310425290235
100.310536302994
100.310639847555
100.310731337215
100.310805457263
100.310855224673
100.310872521142
100.310850058604
100.3107846175
100.310682585407
100.310571853587
100.310510693387
100.310538765424
100.310567547301
100.310586036981
100.310585365218
100.310583822023
100.310582859299
100.310581204119
100.310575725
100.310573714011
100.31057763285
100.310582630313
100.31059226289
100.31058185166
100.310568975824
100.310549467328
100.310524578319
100.310494635364
100.310459936324
100.310419125308
100.310372274187
100.310323757202
100.310267423805
100.310206966693
100.310143161967
100.310074806298
100.31000228883
100.309948594805
100.310009805637
100.310076466304
100.310143518817
100.310204774984
100.310263258378
100.310318122952
100.310368327249
100.31041472094
100.310454135775
100.310488918801
100.310519611138
100.310544479082
100.31056338959
100.310561574702
100.310558485736
100.310556466984
100.310556878068
100.31055886521
100.310562147068
100.310564019998
100.310564973875
100.310565052419
100.31054900708
100.310488542684
100.310520813004
100.310540757374
100.310543648694
100.310540330004
100.310537044484
100.310535656363
100.31053540213
100.310535309556
100.310536329294
100.310540177104
100.310515257021
100.310511037894
100.310508952305
100.310507902324
100.31050841719
100.310509665926
100.310511374198
100.310515011931
100.310515165931
100.310496933514
100.310435543733
100.310462565083
100.310482591992
100.310483723172
100.310480231704
100.310478617485
100.310477388378
100.310478746459
100.310479654534
100.310480419271
100.31048443608
100.310448501316
100.310443926137
100.310444056816
100.310452608735
100.310451082729
100.310441813421
100.31044347995
100.310447081216
100.310448663182
100.3104319986
100.310368862936
100.310389003707
100.310407610468
100.310407492114
100.310402917184
100.310400673711
100.310390685394
100.31038889633
100.310398046175
100.310403388831
100.310408788248
100.310365219474
100.310361076002
100.310356685778
100.310354843783
100.310354321694
100.31035807458
100.310359850658
100.310362975719
100.310365035605
100.310350158531
100.310283903742
100.310297604455
100.310314940024
100.3103150811
100.310311133768
100.310308806181
100.310317775352
100.310317134322
100.310310103647
100.310310615975
100.310313888224
100.310257693479
100.310254098894
100.310252353173
100.310242838756
100.310281359502
100.310243156963
100.310251827926
100.310254580669
100.310258891987
100.310262141045
100.310249205996
100.310177897672
100.310186985996
100.310201722668
100.310201129869
100.310197360431
100.310194952624
100.310192559984
100.3101919923
100.310193678322
100.310195823388
100.310199326254
100.310138812027
100.310134858141
100.310132826614
100.310129944622
100.31012971162
100.310133451789
100.310136225768
100.310138075522
100.310140677281
100.310129908689
100.310052082331
100.310060570407
100.310073419312
100.310074775148
100.310071492615
100.310067425579
100.310064453797
100.310066431836
100.310068967216
100.310070256622
100.310073171076
100.309999509588
100.310000927001
100.310003559708
100.310002024539
100.309997031863
100.309996098453
100.310001240968
100.310006675159
100.310008486081
100.310003393565
100.309923903843
100.309933602933
100.3099314478
100.309932204637
100.309925934961
100.309921855541
100.309925155615
100.309938821679
100.30994102111
100.309931038592
100.309925013711
100.30990345521
100.309839777477
100.309796615128
100.309865230813
100.30986848561
100.309843206576
100.309887650923
100.309827723611
100.309841142281
100.309843654193
100.30984743426
100.309853680896
100.309860405326
100.309860827109
100.309860198227
100.309835138037
100.309795758065
100.309774832499
100.309796754122
100.309785813811
100.309777185361
100.309772404072
100.309771288892
100.309767872546
100.309759730426
100.309747441202
100.309730137413
100.309723719058
100.309729506799
100.309723836855
100.309691009253
100.309633297812
100.309587948681
100.309498712462
100.309441556811
100.309537776353
100.309631908594
100.309642774049
100.309649908439
100.309661587759
100.309684265544
100.309696448935
100.309697927742
100.309697227334
100.309687185834
100.309700079346
100.309722387523
100.30972500022
100.309726128487
100.309635027965
100.309636349059
100.309618725
100.309605777067
100.309586766381
100.309571279413
100.30955753233
100.309558001645
100.309576616337
100.309564922804
100.309549323695
100.309443004535
100.309395259276
100.309308937161
100.309263217003
100.309357785979
100.309376994338
100.309467383257
100.309488719176
100.309489460015
100.30947708652
100.309480705535
100.309498391944
100.309517545431
100.309530918027
100.309554420542
100.309556592944
100.309557144965
100.309449570553
100.309445823587
100.30942147184
100.309403955029
100.309393354129
100.309381171099
100.309369366233
100.309339623147
100.309352901743
100.309417323121
100.309475746272
100.309560292897
100.309655150306
100.309680720962
100.309621949068
100.309759289083
100.309839867571
100.309917614031
100.309992958681
100.310064412765
100.310131476583
100.310194752036
100.310252921544
100.310307940417
100.310359022207
100.310403066541
100.310444385558
100.310478978183
100.310510797382
100.310537737515
100.310562563779
100.310582948062
100.310601222453
100.310601007016
100.31060162119
100.310605263347
100.310602082077
100.310594336058
100.310597362978
100.31060469302
100.310612922788
100.310620914206
100.310631744863
100.310622253538
100.310610000508
100.310595401871
100.310575270467
100.310547057205
100.310516543787
100.310481886332
100.310442298773
100.31039495764
100.310341458368
100.310284485157
100.310218732082
100.310144000004
100.310064024787
100.309981202497
100.309926872911
100.309993601643
100.310070962694
100.310149263022
100.310219906458
100.310279923342
100.310336109851
100.310390882769
100.310436144875
100.31047419135
100.310509425391
100.310541979192
100.310568142315
100.310585852784
100.310602855217
100.310601685772
100.310599026924
100.310598146273
100.310592850501
100.310589068299
100.310585011147
100.310603080882
100.310618785264
100.310619486203
100.310624881095
100.310627220893
100.310629244503
100.310633534149
100.31063935344
100.310646838262
100.310653736124
100.310660923467
100.310649701531
100.310633665194
100.310619346513
100.3106126504
100.310599543476
100.310573520123
100.310542159677
100.310508376688
100.310469678277
100.310421303856
100.310364983407
100.310303517366
100.310230953268
100.31015339506
100.310096610845
100.310159251361
100.310234078445
100.310300685114
100.310359013843
100.310414537796
100.310462182694
100.310500638241
100.310535149845
100.310566012753
100.310590184787
100.310583136361
100.310605211622
100.310621561407
100.310641698488
100.310639188816
100.310637026339
100.31062599257
100.310617880044
100.310612952223
100.310608711254
100.310604812658
100.310602522395
100.31060238518
100.310602921571
100.310601338723
100.310616674435
100.310616646738
100.31061720406
100.31063079663
100.310634628359
100.310638267242
100.310641106094
100.310643996214
100.310645892436
100.310650685219
100.31065733862
100.310669413514
100.310666927801
100.310678499393
100.310684573611
100.310694874187
100.310685679649
100.310676441712
100.310671042625
100.310662910426
100.310649426703
100.31062912919
100.310598356689
100.310563260431
100.310531548467
100.310494779461
100.310446891239
100.310387243241
100.310317900593
100.310242176625
100.310163982942
100.310077453749
100.309973000309
100.309859683533
100.309786607772
100.309874336524
100.309981468182
100.310076756561
100.31015513591
100.310234512811
100.31030937782
100.310375084456
100.310432429161
100.310480455117
100.310518019722
100.310551814043
100.310584815522
100.310612445266
100.310637079374
100.310652414491
100.310644530542
100.310660553415
100.310671201316
100.310676083746
100.31066492154
100.31065201344
100.310640995509
100.31062672231
100.310615671581
100.310634683245
100.31063699182
100.310639624842
100.310643469321
100.310637229815
100.310629631649
100.310629884192
100.310642943896
100.310654741983
100.310650893612
100.310651407584
100.310653827252
100.310656458368
100.310663205213
100.31065885811
100.310668759367
100.310672436905
100.310677857933
100.310685730501
100.31069436397
100.31070282472
100.310713145505
100.310730088979
100.310727594856
100.310726723319
100.310719596035
100.310708374472
100.310696246794
100.310681500334
100.310668527638
100.310646597739
100.310619466119
100.310594547444
100.310565819648
100.310528789944
100.310477018947
100.310416727667
100.310357447994
100.310303513243
100.310244270174
100.310292220853
100.310342041435
100.310407203154
100.310469193609
100.310520325801
100.310555896024
100.310584328019
100.310611692528
100.310609259515
100.310644285013
100.310663838995
100.310677737178
100.310695258501
100.310709084615
100.310699279793
100.310708937701
100.31071247448
100.310694029783
100.310678953973
100.31066146125
100.310648636603
100.310660537114
100.310654095199
100.310677528734
100.310679407676
100.310681080356
100.310683416039
100.310687303856
100.310688915991
100.310687054854
100.310683582162
100.310682036709
100.310679060526
100.310675822229
100.310673735607
100.310673402578
100.310674387188
100.310680970468
100.310677333234
100.310671171517
100.310675879421
100.310681469648
100.310687472832
100.310695378196
100.310707778863
100.310706334106
100.310718386203
100.310724533133
100.310736576343
100.310749131998
100.310767186996
100.310766455926
100.310767981686
100.310763054968
100.310751366365
100.310739836254
100.310733176782
100.310723372283
100.310707353638
100.310686952976
100.31065530001
100.310621055269
100.31058941277
100.310550751685
100.310499538792
100.310442004676
100.310384209198
100.310316987713
100.31022995957
100.310142692521
100.31005677689
100.309979670045
100.310054650247
100.31013540013
100.310223009421
100.310306630896
100.310370752776
100.310429931079
100.310489472962
100.310539682633
100.31057808881
100.310607685088
100.310639045406
100.310679260738
100.310700559617
100.310695430324
100.310712615448
100.310723574761
100.310733638907
100.310748968637
100.310742456921
100.310747155434
100.310752405494
100.310733113749
100.310714621345
100.310692697229
100.310639845104
100.310548337659
100.310337639725
100.31029599712
100.310342854815
100.310363018143
100.310327717874
100.310262992948
100.31014780006
100.309978607712
100.309711774573
100.309341144657
100.30841927724
100.309360800668
100.305385255394
100.307288511174
100.308313969521
100.309022869844
100.30846848997
100.309125219846
100.309669070219
100.310023441674
100.310259327425
100.310405127245
100.310486339733
100.310532271892
100.310542755839
100.310461749538
100.310502539798
100.310043202942
100.31003394989
100.310077733895
100.310009993886
100.310265724516
100.310333502823
100.310326515616
100.310278716912
100.310212711161
100.310121273921
100.310020596675
100.309840410793
100.309526841503
100.307558145935
100.308769599301
100.306575603542
100.312897096228
100.310645598272
100.309469596649
100.305020872235
100.307454627489
100.305293712367
100.299127467572
100.29885694561
100.305728691471
100.304206742052
100.307065363179
100.308783981556
100.304952263577
100.303125529408
100.301794555571
100.302373441543
100.303519581233
100.304571771124
100.305869032532
100.307378430392
100.30837872763
100.308388164293
100.307969385148
100.308320698
100.308950456773
100.309173572823
100.309427509387
100.309711147371
100.309735057375
100.309769078426
100.309818405189
100.30989676684
100.310044751585
100.310176835455
100.31028609308
100.310372447971
100.310438812679
100.310489839853
100.310536873831
100.310562862294
100.310562804636
100.31059924998
100.310616855037
100.31062319667
100.310620154174
100.310619443359
100.310634901816
100.310647729259
100.310660376486
100.310656095192
100.310667741094
100.310665930862
100.310663701551
100.310662736771
100.31066487569
100.310666958202
100.310669294272
100.310667320808
100.310664835345
100.310665851964
100.310676560797
100.310682803533
100.31068474047
100.310685038432
100.310696349782
100.310696797065
100.310698525102
100.310702471169
100.31069511297
100.310692128086
100.310701487202
100.310707171215
100.310715179641
100.31072572723
100.310739374603
100.310739790327
100.310752324779
100.310759767535
100.310773634769
100.310789172824
100.310809351494
100.310812084665
100.310811339698
100.310807126301
100.310801158245
100.310792180266
100.31077897493
100.310770506636
100.31075549512
100.310735346965
100.310709660024
100.31068997138
100.310663430833
100.310632384667
100.310607924104
100.310570288368
100.310523875537
100.310472083321
100.310415266746
100.310361298582
100.310292286559
100.310363753622
100.310413199077
100.310466909669
100.310516663898
100.310565637776
100.310603115866
100.310627714479
100.310629821931
100.310668134764
100.310698757555
100.310722060535
100.310747264835
100.310761556913
100.310771517176
100.310766590319
100.310780970296
100.310791928724
100.310797935441
100.310784789063
100.310781013593
100.31078510534
100.310767175012
100.310747980906
100.31072502924
100.31069462342
100.310708914064
100.310719657052
100.310680765868
100.310647875644
100.310673586701
100.310675880847
100.310678315734
100.310677145238
100.310702546918
100.31070244868
100.310698398217
100.310692410324
100.310691358011
100.310690384292
100.310692326925
100.310694934736
100.310704417631
100.310706130715
100.310707631845
100.310712015975
100.310707899344
100.310715942443
100.310718869672
100.31072627043
100.310725206662
100.31072267299
100.310730671232
100.310743983738
100.310758439243
100.310775392973
100.310776195263
100.310789853145
100.31079863786
100.310813194323
100.310828963811
100.310847610588
100.310847965964
100.3108444089
100.310840510518
100.310836605848
100.310828429666
100.310811764008
100.310799158921
100.310789031743
100.310773423835
100.310762327076
100.310741099319
100.310710878465
100.31068853727
100.310659658426
100.310622568764
100.310580548273
100.310534540141
100.310473416188
100.310408062722
100.310343057142
100.310267073495
100.310197780486
100.310122822294
100.31020807279
100.310259210326
100.310345858048
100.310413913367
100.310475207237
100.310529345525
100.310576261091
100.310617492214
100.310647440419
100.310685571913
100.310711590426
100.310716807058
100.310744921092
100.310764610471
100.31078024087
100.310789624864
100.310807727401
100.310811662493
100.310821293429
100.310825244793
100.310832569276
100.310825144563
100.310829975282
100.310813799186
100.31079979012