/*--------------------------------*- C++ -*----------------------------------*\
| =========                 |                                                 |
| \\      /  F ield         | OpenFOAM: The Open Source CFD Toolbox           |
|  \\    /   O peration     | Version:  v1612+                                |
|   \\  /    A nd           | Web:      www.OpenFOAM.com                      |
|    \\/     M anipulation  |                                                 |
\*---------------------------------------------------------------------------*/
FoamFile
{
    version     2.0;
    format      ascii;
    class       volScalarField;
    location    "2";
    object      p;
}
// * * * * * * * * * * * * * * * * * * * * * * * * * * * * * * * * * * * * * //

dimensions      [0 2 -2 0 0 0 0];

internalField   nonuniform List<scalar> 
80571
(
100.261112108755
100.260695744368
100.260154802238
100.263045003933
100.26750415269
100.267531517224
100.267928039479
100.268626077415
100.266453617149
100.26650812261
100.266699141353
100.266581597418
100.266691087075
100.266866733272
100.266618102774
100.266471563759
100.268634673038
100.267908121044
100.267508347113
100.267483272241
100.268189896063
100.268735181097
100.266457435053
100.266770438321
100.267029731032
100.266341562022
100.266341370858
100.267029403528
100.266769733168
100.266456659443
100.268737867695
100.268191354277
100.267482776819
100.267506471529
100.267904804084
100.268630035428
100.266470122564
100.266616360789
100.266862630129
100.266688868951
100.266579809961
100.266697219645
100.266508179544
100.2664530523
100.268622401993
100.267924949877
100.267529486713
100.26750384856
100.268214409104
100.268764660795
100.26647636885
100.266791099114
100.267054372087
100.266366818098
100.266367430799
100.267055977594
100.266792624983
100.266477342045
100.268762618228
100.268213245297
100.263460033974
100.263730897378
100.263084689369
100.262790827742
100.263152779004
100.263426794687
100.263426562131
100.263151784901
100.262788730068
100.263083080577
100.263730281638
100.263458316247
100.263043795493
100.263423798067
100.264141714962
100.264539531986
100.264590939014
100.26471916234
100.264343120713
100.264715470645
100.264777722489
100.264370051441
100.264679706349
100.264574071898
100.264536186354
100.26412753937
100.263420793583
100.263024414412
100.263440318182
100.263707600383
100.263060269096
100.262765418406
100.263127051485
100.263401964494
100.263402354549
100.263128176456
100.262766638285
100.263061711998
100.263709296946
100.263442728334
100.263025710959
100.263422827238
100.264129573441
100.264539102907
100.26457605877
100.264679408605
100.264371193617
100.2647786079
100.264716280763
100.264344745053
100.264719305484
100.264592907814
100.264542707969
100.264143708221
100.263425515567
100.260655278435
100.261681737218
100.260005118102
100.260650946738
100.260969052213
100.260709705752
100.261265385592
100.259371686292
100.259345674652
100.260366718173
100.260366664212
100.259343739205
100.259368264548
100.26126325722
100.260710924009
100.26078519105
100.260153336129
100.260652146191
100.261679097273
100.261844764037
100.263082757991
100.263293220596
100.262182171526
100.262082139837
100.262031463891
100.262087261401
100.263207610519
100.263039269797
100.261827118287
100.261663980895
100.260640853952
100.260139079429
100.260763626771
100.260685283483
100.261238557756
100.259344042821
100.25931905921
100.260341885253
100.260342231596
100.259319993446
100.259345555361
100.261240223078
100.260686368964
100.260766239224
100.260140406031
100.260643945037
100.26166637084
100.261831473313
100.263041850056
100.263203587731
100.262085713642
100.262032272939
100.262083151634
100.262179713985
100.263288446365
100.263085078772
100.261850943584
100.259992427803
100.251937562051
100.252272213966
100.252327496909
100.252521626244
100.252786370286
100.261668780566
100.260342015836
100.260509237824
100.260508307814
100.260338850587
100.261669388606
100.260967818927
100.260642474545
100.260692439773
100.260002627052
100.25998212
100.260100383226
100.264488254202
100.261744767934
100.261673529482
100.26439878141
100.260090789304
100.259973673339
100.260000850717
100.260600490313
100.260676354939
100.261095800691
100.261941514308
100.262683603044
100.262553158266
100.263091105993
100.265334401843
100.265366063947
100.263955691914
100.262562687411
100.261575395444
100.260963056091
100.260678396939
100.260678700113
100.260963929661
100.261576713721
100.262564323664
100.263957706533
100.265807656712
100.266032933057
100.264526876208
100.262876677227
100.261662151656
100.260821459908
100.260317601291
100.260068951896
100.260068649756
100.260316682972
100.260820039719
100.261660336374
100.262874592052
100.264524825449
100.266030028136
100.265804936775
100.263861486082
100.264168063299
100.263985973614
100.26352476003
100.263298350134
100.262726416085
100.263507590845
100.263241971928
100.261733917669
100.258666907123
100.253341929015
100.251926094812
100.252243649438
100.252307158137
100.252497434297
100.252754643788
100.252755520925
100.252499847575
100.252310639663
100.252249191185
100.251932700471
100.252005135214
100.251997838708
100.250830010034
100.250700209925
100.250778525043
100.250642969716
100.25071293838
100.25077489249
100.25077352313
100.252785792247
100.252518947973
100.252323481837
100.252266432059
100.251930519805
100.251988671985
100.251996466648
100.250815252951
100.25067002259
100.250737187936
100.250611138032
100.250674192351
100.250731266323
100.250732552518
100.250677987935
100.250615720173
100.250744467368
100.250677334806
100.250824920755
100.25127061067
100.251284517101
100.251175027677
100.25122097186
100.2511056154
100.251146703092
100.251142707113
100.251141104523
100.251139641477
100.250708774568
100.250637993345
100.250770739293
100.25069267348
100.250820257119
100.251269297829
100.251255558865
100.251125165154
100.251160024539
100.251037006431
100.251071396159
100.251069130274
100.251070645881
100.251077343989
100.251044990648
100.25117190523
100.251138791219
100.25088523861
100.250949264726
100.250968196795
100.250936681746
100.251014709978
100.250963756689
100.250983277363
100.250970791193
100.250967621253
100.250972331675
100.250949264552
100.251096678045
100.251207754654
100.251161057589
100.250914290636
100.250944336045
100.250925715895
100.250863449145
100.250924029141
100.250854221102
100.250865118822
100.250850884473
100.250854027656
100.250873786325
100.250866688037
100.250941705767
100.249907401438
100.249864501041
100.249932749245
100.249961611975
100.249945635324
100.250023674286
100.250006143836
100.25002356832
100.250031901154
100.25002626676
100.250006950855
100.249982471864
100.249991179957
100.250994385729
100.251157406735
100.25010326306
100.249910722985
100.249923874964
100.249895369776
100.249829653859
100.249881204468
100.249830953363
100.249835741331
100.249842797863
100.249848066041
100.249847846755
100.249852949642
100.248595550213
100.248651447969
100.24864086724
100.248748918076
100.248794131713
100.248772966409
100.2488416244
100.248833546754
100.248841639906
100.24887021566
100.248861188839
100.248813778866
100.248796173998
100.248791839213
100.248715971961
100.248733273379
100.248688955772
100.248585832313
100.248611796198
100.24855968125
100.248545756203
100.248570630902
100.248579258774
100.248565803413
100.247159395961
100.247244574627
100.247322453478
100.247316506935
100.247494146089
100.247561932131
100.247531574825
100.24762630355
100.247622242095
100.247590572685
100.247649968875
100.247636468168
100.247545212854
100.247561219005
100.247548077413
100.247441013565
100.247463936189
100.24739720874
100.247230627485
100.247256431094
100.247191552268
100.247124369767
100.247174818315
100.247187930349
100.245448984364
100.245346138615
100.245540169247
100.245655989349
100.24560609127
100.245940871042
100.246043487086
100.245959603107
100.246137478851
100.246136209102
100.246009804194
100.246160662165
100.246141618766
100.245937854724
100.246034844407
100.246014939397
100.245819051929
100.245888860964
100.245787607366
100.245475279403
100.245547587228
100.245456986019
100.245285955454
100.245430511543
100.242894434331
100.242917018244
100.242573132511
100.242979790754
100.243170252839
100.24300794952
100.243693343138
100.243857177441
100.243576186189
100.243913218677
100.243914954113
100.243586085206
100.243999657168
100.243965863313
100.243476460086
100.243758862827
100.243725174381
100.24335431591
100.243621516108
100.243458659093
100.242807885746
100.242996981715
100.242870209582
100.242479036804
100.23716999886
100.238405907975
100.238434508812
100.237300291297
100.238346398198
100.238581502245
100.238119734267
100.239733739405
100.240012851892
100.239002362234
100.239801674018
100.239800914678
100.238945850495
100.240133557414
100.240079216741
100.238774512548
100.239555122549
100.239508605505
100.238637373834
100.239635379114
100.239345929421
100.23774942964
100.238325111025
100.238153017192
100.231059145235
100.228940735247
100.231818070371
100.231857284524
100.229098531422
100.231343932661
100.231691999691
100.230580152593
100.233991327505
100.234447109378
100.231960946396
100.233718847434
100.23368128669
100.231700642892
100.234417499294
100.23432915208
100.231443145024
100.233290862851
100.23324547651
100.231363164153
100.233866724745
100.233353351794
100.229924075342
100.231315292158
100.239714584537
100.239375371309
100.237358342976
100.239699834784
100.239767666826
100.23756462464
100.23977615329
100.240201060696
100.239266088654
100.242545237025
100.243791422585
100.242042995096
100.243374369821
100.243264349623
100.24123916178
100.243308282394
100.243167086005
100.240868089787
100.242665628876
100.242674134365
100.24117494422
100.243007049819
100.242022121589
100.23886022649
100.275220495238
100.269380301867
100.269173199359
100.27360863916
100.269586482401
100.269729631352
100.274022456461
100.269708282593
100.270045026827
100.276113685835
100.273365299844
100.275089854533
100.280244445789
100.274229037731
100.274262352431
100.278847504427
100.274091372626
100.273896294946
100.278259824792
100.273494526086
100.273275128306
100.279020873265
100.274036815083
100.272446785974
100.310621339255
100.326554983798
100.314390568013
100.323498438301
100.306307700089
100.32220873844
100.311945575396
100.323559512511
100.306328214239
100.306537136152
100.32394517891
100.312497639799
100.322899228746
100.324435617428
100.315535615972
100.327790264993
100.346183793623
100.348390327618
100.332067635057
100.314447068606
100.311889042976
100.358943914248
100.387949760419
100.376045182723
100.379516775251
100.390512601414
100.378691742172
100.366542811115
100.321303276324
100.331954588944
100.329349533639
100.313026459229
100.367732578741
100.389114110279
100.371336157245
100.368842946144
100.374267786665
100.38142851156
100.36037687051
100.317771681098
100.328941494864
100.344234557479
100.311318185289
100.311053959406
100.328460340292
100.317034411172
100.328206537807
100.311884855671
100.330435377796
100.319789348109
100.330556457432
100.313024784798
100.346962123171
100.344928682499
100.374864335171
100.381045763026
100.358073595002
100.369844973854
100.362113472832
100.361735613778
100.368247391245
100.354894154498
100.377814582682
100.368593923738
100.368742598471
100.378155012938
100.368743219957
100.36238462012
100.362939893571
100.370768213054
100.382047324344
100.398769682614
100.402604789936
100.409117865099
100.409974098371
100.407639836872
100.4002036504
100.396090734953
100.410981662772
100.415675966846
100.414534861711
100.415244210036
100.415666422946
100.415239150117
100.416220741772
100.407072271776
100.411054548895
100.406685900421
100.398479498347
100.417787325042
100.416352595668
100.416861438154
100.412853002707
100.412954901176
100.411373907817
100.402862199552
100.394258585332
100.406233491194
100.412098946066
100.413310526613
100.415748600442
100.416173541539
100.416067475741
100.416531670973
100.416640493247
100.416526912931
100.416541317176
100.416590460346
100.416541612201
100.416202929061
100.4159127574
100.415900641296
100.416115705303
100.41634896629
100.416555470684
100.416766932734
100.416812571933
100.417346713563
100.418194271017
100.422082636263
100.428363174173
100.444437703245
100.439247572984
100.3955306989
100.354436301505
100.3105312356
100.286740466163
100.301408934883
100.302044977551
100.299987545831
100.299802339948
100.300704346269
100.301760889641
100.302883834039
100.304206802085
100.305676663991
100.307088964264
100.308241223311
100.309023534222
100.309393557052
100.308740667707
100.307926400047
100.306955157944
100.305780677324
100.304305419166
100.302551005612
100.30072511016
100.299070230855
100.297761244951
100.296809526537
100.296173593858
100.295737740953
100.295416390746
100.295156989042
100.294942965622
100.294802367912
100.294802799982
100.295046742954
100.295625107739
100.296702706584
100.298346150464
100.300114231188
100.300902553797
100.301065498148
100.301054186619
100.301080670815
100.301075635774
100.301083733715
100.301115870692
100.301079042433
100.301054615532
100.300985113106
100.30082942994
100.300628682757
100.30067025824
100.300759114627
100.300947994613
100.300945263096
100.300862853711
100.300990298691
100.301053342073
100.301082882407
100.301074018842
100.301123787883
100.301132483797
100.301067614977
100.301096026453
100.301087357282
100.301060510768
100.301070759808
100.300901326792
100.300563580527
100.301013950584
100.301085514212
100.301073246805
100.30110069276
100.301078160518
100.301132269054
100.301086854573
100.301078923155
100.301058037405
100.301005328558
100.301047517964
100.300946645567
100.301026137815
100.301131642915
100.301132823597
100.301136955784
100.301069306215
100.301083907631
100.301101933361
100.301135602776
100.301096313146
100.301118478131
100.301094157179
100.301113659664
100.300990396167
100.300865032298
100.301139672962
100.301148108924
100.301130850127
100.301140313819
100.301121281504
100.301141256151
100.301132263316
100.301122472732
100.301137246634
100.301142745436
100.301203016273
100.301213298525
100.301160803052
100.30107649416
100.300904104045
100.301148196425
100.301202395469
100.301359961795
100.30149655731
100.301451682186
100.301279208781
100.301270710035
100.301250998642
100.301166045245
100.301196062865
100.30117300807
100.301146994722
100.30115706695
100.301158736057
100.301177607702
100.301150111282
100.301187349236
100.300916935269
100.300593330695
100.301062345916
100.301180614822
100.301185659885
100.30119874892
100.301209305442
100.301196244871
100.301210749634
100.301230110776
100.301243336579
100.301263858132
100.30121469961
100.301311483572
100.301356744389
100.301510132107
100.301478001187
100.301538173558
100.301482657591
100.301440553732
100.30134500191
100.30134642435
100.301295657999
100.301296834653
100.301255636322
100.301217201512
100.301244451425
100.3012505479
100.301224497454
100.301243546429
100.301036533557
100.301023860479
100.30123506016
100.301298712945
100.301277677425
100.301291595689
100.301282553707
100.301327745651
100.301358124514
100.301379151669
100.301388869083
100.301543459922
100.301648381698
100.301728056908
100.301758432144
100.301644639213
100.30183176939
100.301847324128
100.30197267696
100.302067382867
100.30199706324
100.301858448977
100.301715775939
100.301586762898
100.301418436217
100.301419941232
100.301452183707
100.30139464029
100.301443107254
100.301356594699
100.301330949136
100.301367230471
100.301204221626
100.301303519757
100.301417413902
100.301435851207
100.301385145537
100.301450354066
100.301452879663
100.301473480828
100.301442251771
100.301504477461
100.301482245433
100.301673298183
100.301822065978
100.301999213061
100.302029803095
100.302044476238
100.301869726436
100.301820935025
100.30162122438
100.30157923667
100.30149937006
100.301513566973
100.301488073991
100.30150948636
100.301528828052
100.301487649371
100.30145325275
100.301523720496
100.301261102526
100.301381864016
100.301484310476
100.301555921311
100.301513858871
100.301548926378
100.301566505648
100.301610996446
100.301573283987
100.301643844567
100.301600647444
100.301676749183
100.301978585411
100.302176446923
100.302298619657
100.302301082911
100.302392620307
100.30246835524
100.302411974211
100.302242460994
100.302037886471
100.301786918588
100.301738420041
100.301626126815
100.30161869671
100.301670485598
100.301597355859
100.301621320152
100.30167946398
100.301613259237
100.301669947289
100.301610884753
100.301426752417
100.301629155751
100.301624017542
100.301655252305
100.30171671508
100.301677745899
100.301805182674
100.301722447484
100.301823731742
100.301794960705
100.301851623303
100.301977096174
100.302199168125
100.302406056286
100.302427223295
100.302393014506
100.302203525851
100.302275043509
100.302483922252
100.302636639725
100.302566200888
100.302688352998
100.302573337316
100.302593296426
100.302586101127
100.302379503375
100.302131141655
100.301960436184
100.301892089987
100.301795909332
100.301777271862
100.301825201849
100.301762776019
100.301775643362
100.301786907158
100.301761105151
100.301727319517
100.301764817557
100.301753301718
100.301435691508
100.301781528667
100.301677175511
100.301604660667
100.301814692502
100.301773374055
100.30181176602
100.301847138637
100.301815242901
100.301873266398
100.301864145333
100.302019967976
100.30213361728
100.302162956325
100.302459923632
100.302676795695
100.30286914531
100.302800347399
100.302937036527
100.302864989981
100.302869873539
100.302841990409
100.302598549762
100.30232250796
100.302205625215
100.302023499097
100.302002782217
100.302019915106
100.301905758592
100.301966758474
100.301874267347
100.301834248093
100.301881771752
100.301805682217
100.301809664466
100.301898280637
100.301525348594
100.300745962806
100.301476530459
100.300886594881
100.300033343729
100.300947286923
100.300298426683
100.299463173663
100.298491899303
100.299903370695
100.299168175882
100.297491797651
100.296116850073
100.295254095693
100.294823014415
100.294703691656
100.294762945281
100.294930607265
100.295168166085
100.295478638963
100.295898361692
100.296502044336
100.297387773602
100.298596542207
100.300130048467
100.30183322837
100.30349397872
100.304931111102
100.306101942225
100.307080799552
100.307915362852
100.30859901316
100.309148835579
100.3099097319
100.310459093781
100.309970002175
100.309336891067
100.308529701561
100.307541580257
100.306335289741
100.304823052429
100.303022464869
100.301148633592
100.299431922797
100.298052713164
100.297042482617
100.296375203548
100.295926104268
100.295607036135
100.295352831926
100.295131195653
100.294958674469
100.294887628508
100.295011479783
100.2954061416
100.29621211817
100.297628781357
100.299444977426
100.300740998571
100.301086787134
100.301072635763
100.301091815083
100.301111500891
100.30109553339
100.301129442786
100.301094174222
100.301085401902
100.301002759971
100.3008156586
100.300542240862
100.300599989203
100.300266592143
100.299799857983
100.299089511046
100.299313325131
100.299593183076
100.300099291205
100.300095748773
100.299893668793
100.300326570917
100.300419036085
100.300559695178
100.300246648688
100.300481698124
100.3006675307
100.300314037923
100.299869429177
100.300275691871
100.300543431884
100.300872284502
100.301258745678
100.301156222561
100.300915247584
100.300617435382
100.300562991218
100.30071950871
100.300921261018
100.300966787307
100.301049598467
100.300997320539
100.301167306703
100.3011246142
100.301107517604
100.301062798339
100.301035518545
100.301019442467
100.301022188007
100.301038209868
100.301054062249
100.301082034487
100.301090025184
100.301090078443
100.301118458302
100.301087366191
100.301068385131
100.30099029351
100.300825682693
100.300742662264
100.300913038232
100.30105447292
100.301082508692
100.301122545222
100.301125507309
100.301154025025
100.301100893858
100.301174180981
100.30112506177
100.301128784021
100.301049350144
100.300879342438
100.300571293872
100.300171210297
100.300475381592
100.30017601623
100.29972486389
100.298948042753
100.297950402068
100.296853762091
100.295243940815
100.296651668578
100.297031129197
100.297563312005
100.298103253211
100.298526122905
100.29888871334
100.299581407199
100.299604044749
100.299349216619
100.298861502742
100.298434833523
100.298069147875
100.297825766141
100.298704910494
100.299225198655
100.299858129669
100.300084204754
100.300684497582
100.300939868873
100.301091811442
100.301099468907
100.301054376841
100.301072927026
100.301087739903
100.301107526407
100.30114543314
100.301201029135
100.30112643564
100.301244671476
100.301201835494
100.301241118017
100.301169216459
100.301024262859
100.300716485365
100.300305808335
100.299638869316
100.298889800443
100.298857775085
100.297804198303
100.296637202669
100.294885612188
100.292837618683
100.290066683876
100.291041007774
100.29233856276
100.293434506467
100.294384401926
100.295766558403
100.29588311148
100.295152489454
100.294492565372
100.293473783333
100.29302967844
100.294864598316
100.296175939383
100.2965538491
100.297829319658
100.299341864116
100.300108547124
100.30046256802
100.300619992546
100.301081161377
100.301087091836
100.30113486232
100.301151810199
100.301173647874
100.30123267144
100.3011442618
100.301302925798
100.301266517593
100.301323226027
100.301267930469
100.301123459285
100.300803575061
100.300406503076
100.299652543308
100.298923750655
100.29775835167
100.296625021085
100.294570439536
100.294637826489
100.292356866765
100.289241428137
100.285319184084
100.280186252141
100.260586162679
100.27061391459
100.28138111379
100.282462336543
100.286687176348
100.288015564246
100.283183461186
100.286886996113
100.289273019457
100.291113057663
100.292766492466
100.293755382146
100.294935841811
100.295010117099
100.294223839112
100.292732540816
100.291297989634
100.289839362824
100.289593778461
100.291990894059
100.294076305773
100.295038388411
100.296978970378
100.29814537783
100.30002241692
100.300530128085
100.300691068392
100.300802698763
100.301066889959
100.301026038128
100.301014883085
100.300990987456
100.30097551158
100.300959344648
100.301081086437
100.301156879133
100.301154220934
100.301171476021
100.30123055452
100.301141769803
100.301302841808
100.301268250127
100.301328855764
100.30127350042
100.30114787688
100.30079555196
100.300444247752
100.299628236504
100.298925126218
100.297754262738
100.296607062505
100.294545770636
100.292080948182
100.288859007121
100.288815632864
100.284384345296
100.279040802798
100.254600372847
100.225849615032
100.165456167998
100.183682736645
100.189550670188
100.193191154525
100.192721201912
100.199415066055
100.196762497249
100.193148120624
100.198505238345
100.203068043672
100.201146526324
100.196695894151
100.205304251149
100.200902447438
100.201297835018
100.208526664759
100.202109512274
100.201125925067
100.209094047543
100.204682044187
100.198210493586
100.207307895112
100.203931182301
100.196905385526
100.205591098088
100.202494381133
100.194967860949
100.205633421154
100.207023298664
100.20448435095
100.203782757904
100.201828042897
100.200324577682
100.199852921746
100.199983826741
100.199931201929
100.200304487506
100.200596817097
100.200608718092
100.200264212729
100.200485957461
100.200643917943
100.200720228494
100.200513880109
100.200364372889
100.200765238889
100.200463292963
100.20031513912
100.200252635825
100.200497101948
100.200596910378
100.199884656941
100.199891029528
100.20055662657
100.200466413858
100.200215473521
100.200327411636
100.200468189606
100.200770785735
100.200362892018
100.200513946083
100.200720606356
100.200644735248
100.200487056985
100.200266364475
100.200610143722
100.200599245001
100.200306779144
100.199931946785
100.199980898838
100.199852923379
100.200328565821
100.201295786111
100.202307960976
100.202324801144
100.201287646208
100.20176665179
100.202693864589
100.202708642641
100.201784337564
100.201838427305
100.201683951039
100.201276747142
100.201871562116
100.202069108186
100.20073741999
100.201241161379
100.200984006459
100.201151446814
100.201601102023
100.200690707862
100.201334362922
100.201871534556
100.201992690201
100.20258436354
100.200742086314
100.201723043139
100.201127499906
100.201033417133
100.200597063253
100.201175266419
100.203004639327
100.201657906413
100.200358769515
100.201590825111
100.201575954506
100.200339157776
100.201159071909
100.200594023318
100.201025254913
100.201133939458
100.201722014893
100.200736998155
100.202585086096
100.201986044215
100.201863929133
100.201330032305
100.200684349279
100.201598054984
100.201148957854
100.20097966222
100.201238258482
100.200731081335
100.202069921437
100.201873871762
100.201278223965
100.201678518999
100.203651191728
100.203107586137
100.203925183701
100.201476137193
100.200076406619
100.203902404257
100.203113672901
100.202548554402
100.203203762676
100.201994839362
100.202874111077
100.200221076065
100.205915836294
100.205173256295
100.205507957139
100.202006399628
100.201174730082
100.20116560026
100.201998018275
100.203778051594
100.203659819883
100.203113776671
100.203210648092
100.202554272482
100.203113232396
100.202954729525
100.201067904675
100.202000241751
100.203167890878
100.20417229182
100.20237387862
100.20269551432
100.203497169853
100.204492456874
100.20204817758
100.201487560382
100.202007789915
100.202087312413
100.202082952124
100.201557844995
100.201861656314
100.202621443595
100.20261622728
100.201848946794
100.201543071574
100.202079511952
100.202006837877
100.202041703855
100.204501503778
100.203491701885
100.202689593423
100.202362404768
100.204183777151
100.203184054922
100.202007876029
100.201065536424
100.202968011226
100.202181301393
100.200974212966
100.201699005684
100.201534285777
100.202492956423
100.200962244908
100.200586850235
100.202819218019
100.203119774235
100.203233997742
100.202944070332
100.203967389479
100.202175176206
100.201760150576
100.203976888324
100.205003871205
100.204992163015
100.203947090066
100.204761933933
100.201344640031
100.202446353163
100.204463686936
100.203692792994
100.20528941701
100.204499783012
100.205464486461
100.2046218289
100.201262384452
100.202079146128
100.201474705223
100.199573655481
100.19329527141
100.193850006676
100.187965412239
100.191491065276
100.178754767085
100.172999707859
100.176877645298
100.182464868073
100.163107014766
100.236117644608
100.258401674294
100.222378437034
100.250692439025
100.270016894285
100.278035326055
100.283674243375
100.283600272055
100.278705978589
100.271767081716
100.2795716206
100.283591922359
100.286392360057
100.288693239847
100.28681002172
100.289918889516
100.291489946946
100.29292362993
100.293906797464
100.293797128671
100.292307673926
100.290936010571
100.290655034678
100.292062384194
100.293345735138
100.294065210915
100.294936132834
100.293121888316
100.294556831829
100.29334259412
100.292601183425
100.292367313224
100.292226264562
100.292690768405
100.291872138429
100.291841058211
100.292158736866
100.292876535659
100.291036448896
100.293812877099
100.294181195045
100.29474227281
100.2955978703
100.297319392488
100.296595081568
100.295625701822
100.29487648127
100.293971212867
100.293071823706
100.292289626304
100.291195167174
100.293347437307
100.292359799233
100.292026545702
100.292499401764
100.291978386996
100.29262524448
100.292045475672
100.295299136158
100.296090754867
100.296905080382
100.29676420146
100.296544841731
100.296734013262
100.298565818679
100.300488320391
100.299231532309
100.298537113364
100.299072852512
100.29490431519
100.294402377561
100.295534442689
100.297289637144
100.296489082992
100.299106322197
100.297186773139
100.297569232876
100.298054098864
100.297389755558
100.296688445052
100.295981007181
100.295783307104
100.29623044216
100.295444939962
100.294434933178
100.293486593387
100.292500677871
100.292792978976
100.291742103732
100.290761854613
100.291760679206
100.290481560998
100.29077770556
100.291045111008
100.292066124862
100.293671071322
100.293607688126
100.292338611243
100.292892238487
100.292354194425
100.294701518019
100.293964995322
100.293696825422
100.294119834936
100.295106337069
100.297116001061
100.294906020939
100.296785690059
100.298097597696
100.300181973018
100.300742125951
100.301589672837
100.300616920858
100.300049024863
100.300020381442
100.301436943145
100.300965266742
100.299921235864
100.300034515613
100.297755956916
100.299216973045
100.298051067384
100.297085522635
100.298611428119
100.297973321455
100.298366170866
100.297917956638
100.298027879184
100.29768384659
100.299657980704
100.300194816774
100.30111457865
100.30161909623
100.301719927619
100.301775463273
100.301540489294
100.301563601887
100.301042521048
100.300669361588
100.300044094473
100.299124789821
100.298059121934
100.296836035856
100.29596425942
100.295479326103
100.295388942142
100.296023623751
100.297258944888
100.298992135317
100.300542290841
100.300474830585
100.300472932125
100.301079233982
100.301079680733
100.301126151619
100.301143034111
100.301194194161
100.301120336932
100.301244552387
100.301201458197
100.301246862448
100.301173580507
100.301049776623
100.300707782881
100.300350940858
100.299612255478
100.298880517795
100.297704715127
100.296551064354
100.294591525408
100.292311046772
100.289269981473
100.285398916408
100.280413571582
100.26089077552
100.254908911734
100.226134711016
100.165040285168
100.183529110954
100.189436572617
100.193101263621
100.19267025631
100.199241249088
100.201060375204
100.196685825265
100.205368557083
100.200875067
100.201301374232
100.208485814999
100.202117728989
100.201127570042
100.209069010447
100.204674192613
100.19822784106
100.207270978858
100.203934710904
100.196907870601
100.205581113677
100.202501004347
100.194966532695
100.205903976587
100.205153247351
100.205553863969
100.205628675995
100.204507996759
100.207050712126
100.201467091202
100.203929399886
100.201932611298
100.203901408259
100.200075692026
100.200979450962
100.202176388367
100.203260036385
100.203956141755
100.203128259538
100.20243489957
100.201104789021
100.201431439182