/*--------------------------------*- C++ -*----------------------------------*\
| =========                 |                                                 |
| \\      /  F ield         | OpenFOAM: The Open Source CFD Toolbox           |
|  \\    /   O peration     | Version:  v1612+                                |
|   \\  /    A nd           | Web:      www.OpenFOAM.com                      |
|    \\/     M anipulation  |                                                 |
\*---------------------------------------------------------------------------*/
FoamFile
{
    version     2.0;
    format      ascii;
    class       volScalarField;
    location    "0.6";
    object      p;
}
// * * * * * * * * * * * * * * * * * * * * * * * * * * * * * * * * * * * * * //

dimensions      [0 2 -2 0 0 0 0];

internalField   nonuniform List<scalar> 
79506
(
100.121442858572
100.123528288943
100.11976090399
100.124304270799
100.131259632103
100.131499417546
100.129558937555
100.130165895101
100.13055529802
100.13072880805
100.131123500972
100.130745291277
100.132425412592
100.131864511563
100.133992830634
100.134018506686
100.131956830252
100.12907682585
100.125865307336
100.12548427815
100.125585931671
100.127347683771
100.124934501322
100.126130099832
100.128071939937
100.132907082371
100.127509156559
100.126496840837
100.125741379622
100.125386930936
100.125480161487
100.125544892101
100.126373368246
100.127332204776
100.132817266087
100.12783191431
100.125848020619
100.124591075084
100.126971918192
100.125178977575
100.125115831573
100.125503735295
100.128727960599
100.131649907541
100.133601569737
100.133476011216
100.126828216744
100.125635487765
100.122247755134
100.122755435395
100.123283996367
100.123124206563
100.123216619007
100.12322432991
100.120982520845
100.124210456237
100.12790187033
100.126418610835
100.123034271328
100.122091885407
100.12106695186
100.121912981757
100.121996379571
100.121333806021
100.12221424294
100.123221592714
100.126724683541
100.128197955457
100.124476718978
100.12126241818
100.123560850861
100.123583222945
100.123432746584
100.123556303096
100.122924671753
100.122421170155
100.125947484274
100.127196641133
100.124782563368
100.128100114817
100.131275592382
100.133072848345
100.131086864469
100.130526467473
100.131596247805
100.129744665141
100.127262883555
100.123072291886
100.128524057841
100.116939579356
100.105724371501
100.111904115969
100.113519199723
100.122779714469
100.116936419633
100.118082829393
100.120804655185
100.120122647145
100.119625088836
100.119652894069
100.119620180979
100.12420010916
100.125003328989
100.120471034298
100.120832885888
100.118300088264
100.117114620663
100.118009177411
100.118021302798
100.117146289423
100.118410807219
100.121045479701
100.120750529492
100.125286352519
100.124496379727
100.119904750194
100.120011787964
100.119998848892
100.120441180345
100.121101540336
100.118273383181
100.117055996011
100.123227658945
100.123705536562
100.120259539146
100.124107501805
100.130627817871
100.1358440611
100.129290288136
100.128756351706
100.133305947544
100.148770387386
100.117656588205
100.118167247005
100.103137097894
100.076485277555
100.077341095396
100.073030563336
100.073738866022
100.079933292912
100.11016272977
100.120427593579
100.117531278849
100.117291574991
100.12144107991
100.127656608326
100.110936302212
100.111494411461
100.112912958271
100.122252924713
100.117306183728
100.117330323694
100.122371499911
100.112920606008
100.111626438841
100.11112710116
100.109714747784
100.110441107327
100.113970137942
100.111780469494
100.071863424989
100.073918392122
100.075214007264
100.074964627212
100.073889565552
100.07394106828
100.075840655935
100.076269045967
100.080380654553
100.109514808362
100.10466188893
100.088345953339
100.082566916522
100.082494937864
100.079809651921
100.080605841208
100.075106678256
100.07521313743
100.077356814936
100.081088898208
100.080998076078
100.077190411841
100.07505327378
100.080408318963
100.079624739684
100.073253637199
100.073861229288
100.080381500399
100.080838523105
100.079978221506
100.07967326385
100.080546156918
100.080414190237
100.079681764074
100.08091422106
100.080998916218
100.081488493683
100.081606453293
100.080908637634
100.076112400059
100.076918297314
100.076887700734
100.076073338085
100.075069644185
100.076019474311
100.075567547993
100.079496461545
100.0807755925
100.081406150171
100.081693017942
100.080999473772
100.080945580402
100.081661869536
100.081575564243
100.079441252817
100.079237582726
100.079327703272
100.079413889927
100.079486386686
100.079340455186
100.081167518525
100.080254468823
100.08024414598
100.080835786657
100.080387735168
100.079588089218
100.080803225702
100.079121679417
100.07902951076
100.079187888629
100.079289016779
100.079101670742
100.079151863448
100.079456975652
100.077023785922
100.077038020096
100.076985349962
100.077060738147
100.077043733057
100.077090064524
100.077019454527
100.076980480213
100.07929700779
100.081130887565
100.081460250845
100.081301878005
100.079232710716
100.076856555633
100.076840491663
100.076738534679
100.076784681829
100.076827638204
100.076806838061
100.076874359054
100.074985450958
100.075105162562
100.075123094751
100.075070456631
100.075131372361
100.075114844327
100.075135879341
100.075064203252
100.075027328083
100.075026478054
100.07698198915
100.079357375886
100.079764449015
100.077161620333
100.075155050573
100.074929137178
100.074907020139
100.074843980006
100.074907419859
100.074946711384
100.074917524858
100.073211251196
100.073285777186
100.07339055479
100.073400469977
100.073346033745
100.07340527023
100.07338952763
100.073396354092
100.073326060733
100.073290684139
100.07328801334
100.073209239006
100.073191539813
100.073155081201
100.073209583155
100.073232873327
100.071485159173
100.071460947591
100.071535819715
100.071638557094
100.071626763021
100.07158443755
100.071656969839
100.071640324654
100.07164417955
100.071586642418
100.071554274784
100.071545328802
100.071474984609
100.07146283893
100.07144048796
100.071477475548
100.069704446036
100.069776890518
100.06963594076
100.069630656894
100.069817420176
100.069797810653
100.069762792001
100.0698533836
100.069842066906
100.069852443007
100.069808781014
100.069780548711
100.069763934874
100.069698480083
100.069685224845
100.069669473424
100.067862640131
100.067855758448
100.067962546699
100.067661336791
100.067547941563
100.067828380162
100.067901042666
100.067925579568
100.068038995726
100.068037135427
100.068055659638
100.068026069413
100.068001407442
100.067977801083
100.067917038672
100.067891273207
100.06608395649
100.066019411555
100.06594458159
100.065920493998
100.06612086131
100.066046801271
100.0658421918
100.066028811616
100.066109802758
100.06623948275
100.06626006902
100.066288960911
100.06627060632
100.066242800402
100.066205569569
100.066133930028
100.06434043511
100.064247480958
100.064130568844
100.064025102428
100.063801132578
100.064259667616
100.064354349684
100.064006278187
100.064237647767
100.064332679206
100.064482198546
100.064530271292
100.064575313706
100.064564580719
100.064518100313
100.064446364717
100.062692265086
100.062514735371
100.062350757214
100.062148136576
100.062045363808
100.061766358436
100.061729006963
100.061960732755
100.062220375246
100.062437942816
100.062583419397
100.062785030912
100.062875230334
100.062944219702
100.062931661762
100.062839490311
100.061213546626
100.060910625581
100.060603069439
100.06032315575
100.059980174031
100.059832419537
100.059656587805
100.059428935101
100.059673139538
100.060189379344
100.060500634306
100.060841601646
100.061156460258
100.061309190478
100.061417224982
100.06139225048
100.059943220589
100.059605345117
100.058997442436
100.058494315353
100.057990915279
100.057427428
100.057135951553
100.056983427004
100.056723338872
100.057028579435
100.057754652624
100.058342828545
100.059051575294
100.059558317647
100.059824947687
100.059980588639
100.058496488171
100.058448372845
100.057804478793
100.056744493187
100.055921146176
100.055002220819
100.054087618831
100.053581843126
100.053327368603
100.05277119313
100.053351243072
100.05488693783
100.055800959817
100.056982089532
100.057852303547
100.058348483265
100.05652724085
100.056548549906
100.056670468738
100.055453286408
100.05345154605
100.052241466209
100.050814427827
100.04928950197
100.048084363116
100.047762012401
100.046758628934
100.047764042222
100.050620186186
100.052034941369
100.054187887886
100.055782071707
100.052097572805
100.05328562571
100.052487281298
100.05350500555
100.051403586772
100.047122682502
100.045396044893
100.043488427031
100.040946064219
100.03820677744
100.038323346201
100.036876202269
100.038226376184
100.042912278726
100.045227456727
100.049222495069
100.041958516088
100.046541665451
100.048074313938
100.045255652021
100.048293373627
100.044798676517
100.035642361393
100.034092222762
100.031937771984
100.028321474081
100.022741410948
100.023637948164
100.021893458578
100.024080834836
100.03120368103
100.034093491121
100.059573305273
100.065554421876
100.071819677042
100.081375424306
100.072080155197
100.072287590761
100.066257482777
100.056653236478
100.058389455867
100.048623610583
100.043091144471
100.041895241635
100.031539995305
100.070694156659
100.094544650544
100.097976609268
100.080444917707
100.037889514098
100.034147711753
100.137620986556
100.223285565738
100.160234985318
100.164771247715
100.163163723381
100.155121460425
100.15087243655
100.199824985985
100.241421267794
100.147849169827
100.159592042072
100.223884463062
100.177324391668
100.17327460769
100.157811882334
100.149094062001
100.151254303177
100.143286492338
100.182831509876
100.122511711684
100.115089872902
100.167821936229
100.126068910211
100.138428559821
100.151512637455
100.242082015423
100.256845627618
100.261514967427
100.254039841572
100.268641961912
100.279485299491
100.295969377581
100.334605163554
100.349641761417
100.25072280138
100.285575351599
100.3790578474
100.327421532851
100.31780607436
100.301266856145
100.319956115248
100.262503306013
100.251870407212
100.300752561043
100.272973158492
100.275888271467
100.280240010545
100.300512929323
100.291065602599
100.259852130814
100.251277643488
100.248617876309
100.328994799739
100.368454447483
100.34022139355
100.344649904876
100.379928589787
100.372900100635
100.346664532727
100.436238930056
100.462249076001
100.432983245872
100.458858084349
100.466257683628
100.424551654728
100.378226725251
100.423342387563
100.369996493961
100.458403456186
100.482265843799
100.467987490984
100.477232396056
100.497496866767
100.469429792113
100.416449865813
100.436960929307
100.471060037033
100.424478358725
100.443363967319
100.444786866638
100.404381957279
100.4359047617
100.413244340701
100.345028222681
100.337839338167
100.404204702862
100.417906229437
100.376582421756
100.408942226954
100.405799895429
100.374361925749
100.409888472655
100.381332139453
100.366587162094
100.385305385252
100.349168280819
100.346383488833
100.403118952868
100.444184429086
100.423884851192
100.437560552163
100.463384062311
100.463138939051
100.443317111494
100.414478402138
100.412288996689
100.472603765168
100.493293404019
100.487167838295
100.486619048231
100.488903365371
100.48645224464
100.471645702317
100.498721719824
100.500804245333
100.496838779126
100.499199848231
100.498051806894
100.493224165723
100.485460830927
100.488966043535
100.493342244471
100.501925432115
100.492988315302
100.504840387881
100.502897202756
100.500070935673
100.50143014805
100.501876595692
100.501529615392
100.501113728905
100.500826322882
100.497582336846
100.488124227132
100.492275497174
100.498816758182
100.479902341639
100.480500089624
100.473115410079
100.477413452538
100.45734484439
100.452171201408
100.471668797329
100.463568660449
100.460430442471
100.458322452085
100.464306356852
100.467573123659
100.442772586996
100.430529306956
100.450826550938
100.436630292442
100.447326358368
100.478532150832
100.478141918993
100.482092772903
100.488955890172
100.49901371893
100.49981233176
100.505321115099
100.503664950547
100.499407869096
100.493354525334
100.495662175864
100.505367383958
100.507232552259
100.5076241164
100.508748096478
100.508504303345
100.505622868585
100.502763020997
100.508320935432
100.510532461839
100.50979328364
100.512058091387
100.507120977299
100.506733097889
100.503800808392
100.503738554451
100.501633542961
100.501107059466
100.498230601548
100.501180972702
100.497362495583
100.502820349379
100.50277231234
100.500883886425
100.501819124879
100.501992525058
100.501635691731
100.500402454623
100.49976426873
100.501244232643
100.500496457438
100.499572656826
100.500164677684
100.501538323858
100.500109868436
100.500864383096
100.501249114387
100.500306090806
100.499088855388
100.498450508477
100.499521941036
100.496960026225
100.49503055425
100.498453470983
100.489168892878
100.489824495457
100.489085532987
100.492818646449
100.493194819525
100.482028186032
100.482026081494
100.496086151512
100.498527766408
100.48947051933
100.496832440909
100.495706962175
100.490908792465
100.494043651212
100.490855406313
100.49179696655
100.495438034962
100.49635519051
100.494242738343
100.492751250138
100.483271971652
100.490137815876
100.495533633753
100.495788755618
100.499012241182
100.505518651163
100.505522071244
100.510265341285
100.509983465271
100.507228596559
100.507380718757
100.510404139706
100.508934836502
100.506932928126
100.505219188726
100.505228253561
100.506504348853
100.509179544955
100.513877304314
100.515975988364
100.518165276457
100.512241391095
100.513879244634
100.513602487103
100.515802956102
100.516437986914
100.516312373139
100.515414713666
100.51417239375
100.511765437298
100.509165729099
100.505264976943
100.506586450165
100.50337492201
100.508613627585
100.514297190174
100.50919075987
100.506552910279
100.507766231686
100.506804804753
100.502377874841
100.499123269425
100.496919820869
100.495527098849
100.494626748781
100.497814196347
100.507306216716
100.540768670295
100.555936037689
100.4988644615
100.458937116034
100.42330451875
100.381840011545
100.358028740151
100.37429541505
100.371727834578
100.370125043581
100.37058947909
100.371425851079
100.37224546982
100.37328461268
100.374669198883
100.37627464264
100.377876217337
100.379279665701
100.380347950576
100.380979695928
100.379862245217
100.378629892619
100.377283299477
100.375800522127
100.374232825178
100.372709639061
100.371354859966
100.370236161686
100.369330532129
100.368587829321
100.367945739901
100.36735085978
100.366780047959
100.36626612142
100.365936927403
100.365963927053
100.36650610944
100.367649497069
100.369215801025
100.370741728275
100.371729832186
100.372043332069
100.372036031817
100.372115545915
100.372111984892
100.372128923388
100.372139998477
100.372160447661
100.372126599469
100.372169848652
100.372134702379
100.372235739559
100.372349831785
100.372332804958
100.372263426177
100.372148821194
100.372129942571
100.37231172319
100.372129480177
100.37215953087
100.372194075956
100.372091396607
100.372023106061
100.372149386534
100.372012028805
100.372114414281
100.372116035175
100.372144743952
100.372044064922
100.372065965859
100.372066673237
100.37206190924
100.372050584646
100.372011207004
100.372039303763
100.371958290314
100.371846093011
100.371773507845
100.371710813886
100.371812888313
100.371878601516
100.371934992298
100.371995933727
100.3719878671
100.371984369946
100.372028080309
100.372068700396
100.372076003106
100.37210492153
100.372133264967
100.372169780392
100.372197905697
100.372209487352
100.372213549474
100.372132659757
100.372363389992
100.372397832128
100.372435289204
100.372479741275
100.3724515486
100.3723748961
100.372317527469
100.372224854513
100.371869938594
100.37141427396
100.371267478335
100.371465941176
100.371618274101
100.372024380616
100.371804557703
100.371582638929
100.371443274678
100.371657197799
100.371636059098
100.371954334778
100.371995741822
100.371864186962
100.371921050524
100.371904794464
100.372005183732
100.371961276206
100.372011765564
100.372074389382
100.372013531394
100.372001266115
100.372034752635
100.372071844756
100.372174559065
100.372180726816
100.372243049736
100.372257928703
100.372256031943
100.372285504292
100.372289300074
100.372471516219
100.372525167772
100.372599330399
100.372672744232
100.372658043709
100.372773285036
100.372402754937
100.372338602532
100.372099026037
100.37212055832
100.37235553936
100.372360325712
100.372545343366
100.372662082529
100.37282107406
100.372854686355
100.3728700632
100.372714133199
100.372507760335
100.372400625807
100.372501110523
100.372532888719
100.372677703277
100.372577321293
100.372512201482
100.372315318303
100.372029562711
100.371922692098
100.372185919744
100.372185254214
100.372294629594
100.372308214084
100.372367430207
100.372414161107
100.372450855532
100.372693984189
100.372840282845
100.372983387316
100.373022943309
100.37304465771
100.372822400234
100.372592641106
100.372162708617
100.3716555121
100.371187719992
100.37140375754
100.371583994745
100.371590007357
100.371448565602
100.370720321015
100.370058933416
100.36947037875
100.369715176582
100.370046723591
100.369933771315
100.369849755302
100.37015316415
100.37046218669
100.370578492089
100.370612355497
100.370344300546
100.370644063981
100.370300594077
100.370960116566
100.371953716467
100.37224249808
100.372106969017
100.372140647054
100.372166184012
100.372211197901
100.372232909415
100.37227713332
100.372280563436
100.37232809917
100.372353880946
100.372397485181
100.372392744908
100.372462753518
100.372551288398
100.37281602545
100.37297265105
100.373099822531
100.37310555203
100.373080379577
100.37291695064
100.372664555506
100.372266092337
100.371756519582
100.371182566191
100.370403075475
100.369991623453
100.369869460366
100.369703823518
100.369610880517
100.368797882736
100.368437502405
100.368274792612
100.368118851061
100.368091444108
100.368544498572
100.36866203387
100.368177539497
100.368516758767
100.369029777653
100.369092412693
100.369213770608
100.370384053444
100.371069901891
100.371895726651
100.372294418885
100.372243200875
100.372244837894
100.372256859543
100.372296709845
100.372310783856
100.372349942151
100.372382272634
100.372425554273
100.372419040791
100.372399441312
100.372503868806
100.372657572222
100.372928603439
100.373104276202
100.373279127779
100.373223399872
100.373266634252
100.373278232456
100.37339862249
100.373219880093
100.373016580661
100.372690125889
100.372380176027
100.372457950531
100.372802884632
100.373052492771
100.373243032739
100.373440223407
100.373417482903
100.373335837306
100.373070264941
100.372788104959
100.372751970094
100.372363021684
100.371870415156
100.371282440316
100.370496672301
100.370121218366
100.369695052812
100.369442135094
100.369365288551
100.36911395775
100.36884376977
100.368580245406
100.368899385663
100.369242616072
100.369530254585
100.369287805322
100.368926890809
100.368704423053
100.368237594007
100.368225617196
100.368402897009
100.36814633245
100.367600507511
100.367854166373
100.367972264259
100.367519039192
100.367561020469
100.367016472414
100.36658739044
100.366218346633
100.366023249801
100.36651252417
100.366898106383
100.367224578989
100.366775995545
100.366925961749
100.36715534699
100.366950183356
100.367716274979
100.366062039414
100.364471110234
100.363356011719
100.363483978707
100.364120350287
100.365120676543
100.367159127298
100.364996363283
100.363925021953
100.362934583109
100.359250515233
100.356149482084
100.361204937151
100.360364708504
100.36036747258
100.358209430776
100.359388831151
100.356723512396
100.358573254708
100.360288042328
100.36052894322
100.361680049106
100.363147944766
100.364349566614
100.365591578005
100.36648889951
100.366066006908
100.367950219195
100.365484075626
100.372241600992
100.371169295474
100.369742560079
100.367926554411
100.366084398205
100.365032716989
100.367818346638
100.369341977371
100.364440021298
100.361888073709
100.360591542793
100.351006219338
100.354842714855
100.351727181137
100.355131715504
100.356594981138
100.367220181705
100.369337230097
100.371274404236
100.371561370357
100.371682565743
100.371755161489
100.371796185069
100.371822268323
100.371833473135
100.371883825859
100.371934714265
100.371888790958
100.372042342273
100.372006309634
100.371908236845
100.371862447396
100.371845203822
100.371973705742
100.37186475391
100.372007395306
100.371995143119
100.37184363257
100.371905386604
100.371900753056
100.371856472838
100.371820806256
100.371803041206
100.371737759186
100.371594480034
100.371637144438
100.371121415335
100.370276612353
100.37136064619
100.371657266061
100.371636025934
100.371748422099
100.371766126621
100.371790860482
100.371804331517
100.371845788702
100.371888242553
100.3718463183
100.37190339978
100.371799587519
100.371877402454
100.371970450476
100.371991341512
100.371987983108
100.371896217291
100.371902163637
100.371425197023
100.371264466065
100.371563677014
100.371511432842
100.371861328302
100.371684557245
100.371836963821
100.371933247076
100.371861158037
100.371878804193
100.371904462315
100.371903970047
100.371882805832
100.371790984542
100.371801288207
100.371766029969
100.371754134244
100.371629759856
100.371602227152
100.371331348937
100.370412268165
100.371524297841
100.371604860317
100.371671482924
100.371779687678
100.371793781024
100.371859412328
100.371920154022
100.371909322855
100.371954905739
100.371946065243
100.372031284191
100.371906355285
100.371680729702
100.371237701345
100.370775380961
100.371391093092
100.371423166339
100.371906293522
100.371654074736
100.37199750556
100.372070661986
100.372005811327
100.371991623374
100.372005157357
100.371933849556
100.371848414668
100.371804886294
100.371777091214
100.371710004953
100.37161057919
100.371525805994
100.371439511892
100.370098220777
100.368406317324
100.370648860713
100.371588345781
100.37155389534
100.371650149097
100.371760524479
100.371793990648
100.371851275042
100.371983050905
100.372061703083
100.372040145009
100.372043701641
100.372065142416
100.371936618944
100.371790414244
100.372108240255
100.372139560305
100.372116630178
100.37212965425
100.37215477966
100.372032391136
100.371774000882
100.371303173104
100.371945981789
100.37190649373
100.37218389182
100.372047610213
100.372201899889
100.372191883331
100.372114056229
100.372032789564
100.372079071992
100.371891629575
100.371863217254
100.371789625005
100.371704901627
100.371577173032
100.371605017113
100.370826895917
100.369126015069
100.371331376313
100.37165924739
100.371638917249
100.371745352771
100.371846525306
100.371829756423
100.372093278084
100.372165618275
100.371879685402
100.37186393723
100.371773414507
100.371680763396
100.371588772996
100.371552774046
100.371111409369
100.369371683906
100.368311532605
100.37056582743
100.371501695712
100.371584469095
100.371651743033
100.371740610011
100.371849242174
100.371828592074
100.372110213857
100.372055403436
100.372210086806
100.372235643959
100.372122345235
100.371918215385
100.371310826891
100.370613617162
100.371277513725
100.371868120108
100.371844139502
100.372137830298
100.372109221105
100.372227569943
100.372234388518
100.372111245813
100.37217825613
100.371871048254
100.371872551388
100.371764256426
100.371693203804
100.371615140763
100.371620104186
100.370957755424
100.369761915396
100.371550158514
100.371685829646
100.371676557531
100.371743516827
100.371838326148
100.37182032392
100.372090240478
100.372033382669
100.372176449252
100.372198269982
100.372054068055
100.371840719489
100.371208045207
100.371801860473
100.371823596055
100.372056544689
100.372079011318
100.372181360379
100.372178350963
100.372058310209
100.372100230832
100.371838282068
100.371813952859
100.371756255615
100.371696500979
100.371647021699
100.371610287358
100.371628295014
100.370331214997
100.369650915117
100.371519419843
100.371733265662
100.371637646401
100.371688201974
100.3717543389
100.37176594395
100.371797849909
100.372002868792
100.371921145302
100.372074048022
100.372084948121
100.371968132102
100.37180374361
100.371138230766
100.371679123459
100.371698679181
100.371887762225
100.371967113659
100.372081738373
100.371947980395
100.372090135525
100.372008779457
100.371980263924
100.371846548563
100.371784099258
100.371749438767
100.371737745615
100.371729603258
100.371669050583
100.37165670154
100.371682777739
100.371567040331
100.370221183974
100.36984090695
100.371455382277
100.371792829956
100.371680951298
100.371691686704
100.371702463124
100.371732132797
100.371765417126
100.37176786762
100.371933028334
100.371871804055
100.371969601666
100.371984972723
100.371892749445
100.371675434964
100.371123545137
100.371536771928
100.371806103395
100.371905858597
100.371899186544
100.371870660987
100.37186848014
100.371791449842
100.371705969754
100.371171942698
100.371548965458
100.371580193412
100.371692683078
100.371824943825
100.37185773586
100.371748417553
100.37183801699
100.371790775093
100.371854117226
100.371847436719
100.37172553805
100.371744252022
100.371764438716
100.371721384951
100.371713342788
100.371698097698
100.371736159247
100.371531903653
100.371408716176
100.371776949534
100.371740499876
100.37172978911
100.371719665856
100.371745150588
100.371729624557
100.371748639775
100.37180570342
100.371790283512
100.371772605264
100.371845495828
100.371857935633
100.371587908667
100.37169054161
100.371807200623
100.371732961132
100.371772182736
100.37178507823
100.371807200837
100.371721610096
100.371737715579
100.371728032049
100.371733967015
100.371765495702
100.371708431646
100.371915877451
100.371424110046
100.371698139287
100.371896006007
100.371811771899
100.371779590277
100.371771022964
100.371761584126
100.371758030546
100.371743501894
100.371788997235
100.371751546423
100.371768739757
100.371856673227
100.37181334955
100.371697600231
100.371405254818
100.371666138177
100.371761086744
100.371799500789
100.371717933396
100.3717778371
100.371851677965
100.371827329034
100.371852704111
100.371539956897
100.371723486808
100.371813895216
100.371829123828
100.371725562131
100.371780117097
100.371769583269
100.371797367062
100.371763060122
100.371764490621
100.371782542693
100.37179597151
100.371797588016
100.371857201164
100.371790869079
100.372018850049
100.371550188617
100.372134540891
100.372024127556
100.371972816618
100.371911165449
100.371877329227
100.371855120063
100.371835089894
100.371830258191
100.371843142006
100.371807552266
100.371807710393
100.371929293958
100.371914987632
100.371946106537
100.371669478046
100.371839818469
100.37187764404
100.371847299744
100.371751314651
100.371805153243
100.371866234847
100.371926089455
100.372048314592
100.371893129421
100.371620579908
100.371963558399
100.372067017263
100.37205707401
100.371995749784
100.372073660116
100.371961860554
100.371842385988
100.37181336365
100.371857982334
100.371826261254
100.371840817402
100.371819092482
100.371827552157
100.371885679001
100.371940759211
100.371930659214
100.371999523506
100.371939560079
100.372149411461
100.371712596852
100.372335706158
100.37211901751
100.372192737902
100.372107453211
100.372053289396
100.372040070889
100.371966577287
100.371909460657
100.371905181269
100.371893718497
100.371848043247
100.371879974675
100.371950586932
100.372038096702
100.371966261413
100.371945886436
100.372118106156
100.372271342167
100.372197083371
100.372174487387
100.372087894937
100.372260198355
100.37244899031
100.372447986876
100.372449222645
100.372296899923
100.372086982313
100.372008245257
100.372098331903
100.372025595999
100.372066312294
100.371985198378
100.372048453765
100.372113136061
100.372108376087
100.372212563086
100.372235171115
100.372413008003
100.372254028411
100.372519866042
100.372554986102
100.371467764808
100.371836905905
100.370549271343
100.371115028428
100.369690940268
100.370507239795
100.368878905266
100.367526284399
100.368333276191
100.367221203788
100.368182210077
100.367180874955
100.36663132506
100.367460241707
100.366955796733
100.366717669726
100.368085537066
100.368073259707
100.368212109181
100.370146193402
100.370282915645
100.371530133571
100.371715506303
100.371799000537
100.371842490952
100.371902574767
100.371901389373
100.371941563475
100.371968708928
100.371991057345
100.371931630631
100.372017261407
100.371927209319
100.37199457149
100.372052238063
100.372038429219
100.371970520668
100.371900977181
100.37204340123
100.371980077663
100.372022996485
100.371711077759
100.371644968719
100.371833658019
100.371681395991
100.371304252804
100.370945112722
100.37091668746
100.371172716344
100.371229100656
100.371763918109
100.371600448091
100.371319739666
100.370810861781
100.370133109235
100.369441202213
100.369906258657
100.370196781635
100.370051546862
100.370714545369
100.370689863288
100.370761602485
100.370494570073
100.37080194917
100.371313870554
100.371479513124
100.371799178633
100.37179420817
100.371898993071
100.371876149452
100.371760481089
100.371746488896
100.371756997625
100.371760988509
100.371804965406
100.371811295148
100.371835094984
100.371871611965
100.371879748023
100.371923149592
100.371923432119
100.371943013585
100.371977696902
100.371975628284
100.372007695219
100.372035214385
100.372011519705
100.372119767334
100.372103235966
100.372015350347
100.372096324382
100.371935729621
100.37195051808
100.371934499852
100.371937780638
100.371896909208
100.371896308327
100.372172241082
100.372172110591
100.372108205798
100.372148308549
100.37219172362
100.372239519623
100.372279973007
100.37238769524
100.372437603839
100.372463101902
100.372499159199
100.372569529359
100.372618793239
100.372773459831
100.373002200574
100.373203741659
100.373408378252
100.373581176971
100.373549602015
100.373469376358
100.373224550966
100.372858298604
100.372558035227
100.372709948815
100.372312109538
100.371908707609
100.371368240253
100.370573573807
100.370236447219
100.369828255912
100.36960613584
100.369556543621
100.369390652467
100.369734199964
100.369478081466
100.369109932147
100.368744182546
100.368589418746
100.3691796567