/*--------------------------------*- C++ -*----------------------------------*\
| =========                 |                                                 |
| \\      /  F ield         | OpenFOAM: The Open Source CFD Toolbox           |
|  \\    /   O peration     | Version:  v1612+                                |
|   \\  /    A nd           | Web:      www.OpenFOAM.com                      |
|    \\/     M anipulation  |                                                 |
\*---------------------------------------------------------------------------*/
FoamFile
{
    version     2.0;
    format      ascii;
    class       volScalarField;
    location    "1.7";
    object      p;
}
// * * * * * * * * * * * * * * * * * * * * * * * * * * * * * * * * * * * * * //

dimensions      [0 2 -2 0 0 0 0];

internalField   nonuniform List<scalar> 
79587
(
100.071412713353
100.073357058673
100.069981611918
100.074328725866
100.081370430606
100.08148580115
100.079441107906
100.07996582309
100.080078753201
100.080452838632
100.08073999601
100.08055203968
100.082430258589
100.082118276359
100.084456039766
100.084413770604
100.081095901561
100.076449145577
100.075431242938
100.075428220741
100.076418520104
100.076135507653
100.075354035434
100.076899083248
100.083308378079
100.083207064816
100.077550767852
100.075882450557
100.075856149691
100.075039491033
100.074912582505
100.075981025676
100.075892950296
100.077508291373
100.082971532457
100.082875460535
100.076701191658
100.075316597234
100.076126157965
100.076197043364
100.075293718482
100.0752982944
100.076365573655
100.080929992324
100.084073036537
100.083929223036
100.077030756168
100.076578929682
100.074292791075
100.073584118234
100.073711974486
100.073579475225
100.072986914251
100.07166524055
100.072782400701
100.074099877415
100.074198524466
100.07329138964
100.072325306105
100.071100908764
100.070771177633
100.0713611879
100.071284802901
100.070609038165
100.071110966597
100.07230587442
100.073135545084
100.074220734868
100.074296169674
100.072880895543
100.071802607589
100.073156650056
100.073649714883
100.073754321401
100.073540791152
100.074245948412
100.076784478435
100.077506558366
100.075096975962
100.077998417327
100.080913594252
100.082265159914
100.079942810953
100.079752332731
100.081144837916
100.07942630924
100.07706509887
100.072835159727
100.078112157896
100.066881570628
100.055879427454
100.061649102336
100.062746430499
100.073690616008
100.069361432411
100.069990729788
100.0723153162
100.070440291763
100.068958477281
100.068373396738
100.071093628882
100.072910612105
100.068769929362
100.068007723443
100.07020608297
100.066944406046
100.065832559804
100.06706348632
100.067064718491
100.065877621788
100.066953335451
100.070146755061
100.067878200961
100.068312887445
100.072951162288
100.071526627862
100.068658140746
100.069097913746
100.070485764666
100.072305689611
100.069891038872
100.069198086092
100.073947571793
100.073972161283
100.070953557392
100.074065691087
100.080277015877
100.084965510429
100.077909588231
100.077853056303
100.082658613114
100.098601752649
100.068299196819
100.068820173622
100.053129232219
100.026142994673
100.02708078283
100.022908097316
100.023209415625
100.029499138404
100.060916870176
100.072123334455
100.067829208066
100.06757001537
100.074261906141
100.062481341969
100.063177403444
100.063010013209
100.063239926822
100.070996286693
100.066533407046
100.06651535478
100.070932603391
100.063256990271
100.063069515301
100.063205367952
100.062336362065
100.061038479958
100.063040600757
100.060998408492
100.021365257218
100.02378165528
100.024589045176
100.024226711817
100.023624213812
100.023714782761
100.025191915842
100.025810273827
100.02993755909
100.02718723848
100.028174120169
100.031684179173
100.031687734349
100.028215585683
100.027193377019
100.029738392922
100.029241216688
100.022635047182
100.023448500236
100.030016099795
100.030691299162
100.029289875174
100.028943454549
100.030220943408
100.03013194641
100.029320373266
100.029654251845
100.029909383463
100.02486955689
100.025690113336
100.026918110765
100.026872225895
100.025600063745
100.024696612621
100.025599192238
100.024930473266
100.029118507662
100.030457355271
100.031048163855
100.031201375808
100.0305809304
100.030686939393
100.031351289024
100.031239820727
100.030681428556
100.030883025566
100.031040266031
100.031045264258
100.030230183095
100.029879559655
100.02981594026
100.0300708078
100.029619872456
100.029418706564
100.030665564048
100.028932141991
100.028749517072
100.028928418194
100.028754874717
100.0290438196
100.029369357715
100.029256275349
100.029124380171
100.028920693703
100.029102593784
100.029092084124
100.029094184185
100.028975136595
100.030699147394
100.030650870262
100.030926687544
100.030821798801
100.028939343636
100.026621427273
100.026640625273
100.026513679845
100.026598463065
100.026525032725
100.02633841858
100.026367674758
100.026590847423
100.026657447576
100.026574182014
100.026740989645
100.026714213948
100.026788755924
100.026743391862
100.026717056767
100.028943144921
100.029052940853
100.026744300586
100.024841624724
100.024721521887
100.024724741193
100.024621781056
100.024696332081
100.024791666589
100.024889807675
100.024641956534
100.024429251787
100.02463035963
100.024583052813
100.024754811394
100.024755867943
100.024869104761
100.024850052235
100.024835694797
100.023172913383
100.023154661331
100.023010931437
100.022974985154
100.022853659411
100.022834634314
100.022694447975
100.022949276387
100.022835568615
100.022542400151
100.022808497178
100.022770064036
100.022964481732
100.023005910964
100.023161410819
100.023177551311
100.021465162014
100.02145882328
100.021376156556
100.021153881618
100.02105158771
100.020861394289
100.02077267277
100.020472951945
100.020117250112
100.020206649304
100.020580523519
100.020787166552
100.020823214061
100.021064372581
100.021150390567
100.021400401187
100.019332032482
100.019480888817
100.019457157646
100.019243904149
100.018886243772
100.018696577801
100.018372783102
100.01822918803
100.018081155163
100.017241871996
100.017331510937
100.018183783534
100.018284264857
100.018502877991
100.018811490866
100.01896992705
100.015861767713
100.016527479711
100.016841366081
100.016749815623
100.016280906286
100.015560856745
100.015531656572
100.01499527658
100.014473557927
100.014675722812
100.013179162384
100.013254202698
100.014840084829
100.014716534712
100.015379779113
100.015860656592
100.011500334474
100.010601104168
100.011962579969
100.012839412487
100.012625509341
100.011498387688
100.009820514197
100.010653652223
100.010022457231
100.00794715467
100.009403628709
100.006049287258
100.006175488184
100.00982037442
100.008600174635
100.010811378278
99.9997312990992
99.999930573119
99.9950619527364
99.9973170012492
100.001136604094
100.000743333547
99.9965511284991
99.9933160306844
99.9984273388381
99.9981929638412
99.9905165695225
99.9948376859418
99.9905448556565
99.9907614226352
99.9956148185118
99.9922052838844
99.9992507624704
100.008290175131
100.007485456122
100.001623701762
100.007917048961
100.009584205334
100.008835781577
100.006232592543
99.9990213769511
100.004693883155
100.005804214818
99.9971267053779
99.9933810272522
100.024619901237
100.046943494147
100.046999399779
100.02535152219
99.9916538901944
99.9916268769164
100.084758446793
100.168594609121
100.104811159265
100.105488158413
100.092113131836
100.081110071584
100.071332164462
100.06928945113
100.066050242661
100.065777639056
100.078245743785
100.070109863663
100.069053457022
100.075533154257
100.061964920795
100.06187308538
100.065984340771
100.068067674078
100.078785611775
100.090003874751
100.181686899017
100.199080045892
100.199703728452
100.183511325779
100.186904191387
100.177868896639
100.203520380191
100.246035923669
100.156864361869
100.159181530334
100.210785185647
100.174689353006
100.200134919192
100.224676565031
100.164545302584
100.1630741181
100.221942357821
100.196478617605
100.169502194694
100.204634532402
100.152700421364
100.150851782616
100.198172466313
100.173914052901
100.183827188202
100.271978984093
100.317738052052
100.287867802847
100.288024724321
100.319356719459
100.293121647122
100.274532594839
100.398492066801
100.427742379488
100.381336149659
100.399646757115
100.40273705916
100.352865610952
100.295861724323
100.328604735388
100.274859186937
100.39776204764
100.430986942898
100.387870574293
100.391326398511
100.316947711276
100.321001217042
100.248895288377
100.29559214798
100.38177769417
100.426713629157
100.395067995599
100.401375374273
100.336657318791
100.289180359036
100.33014058595
100.309617804855
100.313453306104
100.336257650311
100.247022411389
100.246231516288
100.335778514004
100.310851770205
100.305390864341
100.3239414922
100.2823113581
100.329017549484
100.312331712219
100.309222543258
100.322879008176
100.291920615839
100.290293035294
100.349581090349
100.398094649684
100.380282378213
100.395574906752
100.427187511402
100.426478369954
100.395802117429
100.366406560412
100.366728493218
100.445198215151
100.468384572605
100.458997025187
100.457947546675
100.458525508924
100.447998336014
100.430919038506
100.474174019271
100.474722586873
100.47090863827
100.465477313883
100.462994051797
100.456835810672
100.442284788827
100.442344273584
100.445011278849
100.455881949383
100.42622704423
100.42819248608
100.431600011175
100.438878101967
100.459196406167
100.456565020036
100.437789455955
100.396928560366
100.404506314373
100.383110826678
100.414344385711
100.403146501659
100.402706354095
100.413055046306
100.37941994172
100.399787836762
100.390740830206
100.393612489794
100.385708122039
100.383552730659
100.38172788748
100.398865006845
100.439412796016
100.441599777275
100.447945279876
100.460221243214
100.472802341398
100.470430668656
100.478499417067
100.478255189272
100.469041141794
100.468096896753
100.469556965572
100.47543792742
100.472868688665
100.475057841439
100.472798323091
100.475654971484
100.470533206515
100.471680594239
100.474733741943
100.475338738819
100.474763283146
100.475222660697
100.47535302416
100.473569960552
100.472622420492
100.473845603247
100.47146883795
100.467268422607
100.46359938685
100.46907881733
100.458108411587
100.475574086484
100.474252531715
100.472503376894
100.470667002793
100.475741945122
100.471083337244
100.470460225452
100.476169560689
100.459578275402
100.462577134284
100.463682367691
100.475960436094
100.471448816592
100.470031015142
100.467657622424
100.452655722579
100.44592227657
100.451078352295
100.437035130405
100.437138256103
100.45072867017
100.445480001338
100.451518734151
100.432694728247
100.450935226447
100.452914000766
100.430362838236
100.422494550156
100.420900714209
100.420804516222
100.441357503414
100.4563231606
100.46411217348
100.463097301584
100.467863548335
100.474385250943
100.472034460212
100.477351461993
100.475783256769
100.475771690835
100.475897972379
100.476072908631
100.475179674996
100.474249284774
100.475252526572
100.47513324064
100.475759865941
100.475809024373
100.4757584959
100.477200262979
100.475885914117
100.475396584943
100.475531204972
100.475847195423
100.476982411082
100.477798224296
100.476591643066
100.477628562469
100.478320352978
100.478740501871
100.476667492052
100.47722055009
100.475760397288
100.473897363919
100.472778854523
100.469426236166
100.469856457837
100.471215150244
100.473183045617
100.471556686766
100.471454920963
100.471413153961
100.469632008321
100.469802770923
100.47164879933
100.477369260505
100.472234367198
100.472347391214
100.477350593886
100.474939320293
100.477170174218
100.471853740601
100.435518884559
100.430764225275
100.433129296858
100.445327436963
100.448316118764
100.437459273061
100.436623602924
100.433657113423
100.431475021527
100.42604607343
100.428306739945
100.41708093056
100.42673184552
100.443854578025
100.430032876118
100.43367625129
100.444012730282
100.466912650044
100.46584991074
100.471338365465
100.461532949414
100.463769243079
100.468632655312
100.471209021333
100.462447923852
100.452112447284
100.449751900009
100.426111596997
100.432146350304
100.437364434536
100.43706901266
100.429803665806
100.423997875996
100.435592424886
100.422182148938
100.421915546432
100.434053204761
100.437041356727
100.423794556942
100.421262575976
100.443081066502
100.474494223373
100.474813898861
100.463420058649
100.480801331295
100.465175402432
100.496760128991
100.478895677092
100.463801161329
100.469373541309
100.468652575317
100.472375810908
100.464077744456
100.467517986894
100.451893288667
100.432023847046
100.426398668877
100.431751056496
100.411100747652
100.418468976369
100.441793133362
100.439207071058
100.431667529668
100.425418809461
100.438931812729
100.427953530074
100.425468054419
100.434188212364
100.424293233852
100.42305136771
100.423293316203
100.423988986706
100.421988736879
100.443965948858
100.474725758771
100.474993219252
100.463038286921
100.479595167028
100.476397468484
100.43359712409
100.433840286105
100.435544041116
100.429642305186
100.434806018979
100.477626949965
100.480160326657
100.476907305386
100.491261217211
100.485651451075
100.465846917153
100.446151253756
100.464415684624
100.468923344942
100.466282766059
100.465644059492
100.467015032375
100.451594015275
100.432468746679
100.432481847484
100.432079684102
100.436705670225
100.436842722392
100.433940919057
100.437195367901
100.431225160571
100.423900650173
100.427208822443
100.439450150791
100.43324078506
100.44680461918
100.437408312999
100.435547525826
100.443534641326
100.432520481018
100.432320017937
100.424316209775
100.434678710331
100.43547402383
100.438806898156
100.434909192967
100.44501952831
100.466227305943
100.465157185043
100.469754073883
100.463062568835
100.492740460971
100.477058104156
100.426691448003
100.432891238118
100.434798464562
100.470298874701
100.470125175928
100.490743935253
100.486348522713
100.485134093262
100.467132862421
100.470038898926
100.462421751161
100.448740581777
100.426311933238
100.426686021628
100.431773668162
100.437281018589
100.437399126788
100.44153713272
100.442311084097
100.43561240559
100.435978861971
100.45218192974
100.447236090504
100.45163468541
100.450158808425
100.446778713905
100.445408861181
100.444019093574
100.444532865126
100.452363977673
100.451385113647
100.443907557862
100.444721147214
100.443863883629
100.435594005121
100.425454985027
100.421883110447
100.423200146515
100.430716945644
100.442623113435
100.461759581822
100.459122344332
100.459430273608
100.474584249748
100.481358534704
100.48597758486
100.473217392886
100.468163794016
100.468538677891
100.488928581576
100.463137363554
100.45961844577
100.466163663666
100.463492532659
100.45680130338
100.471453339757
100.471720986878
100.472992448295
100.472113087655
100.470428451152
100.469245028336
100.47119085505
100.473828619865
100.474732301277
100.474890205243
100.475200994635
100.475263784046
100.474352664651
100.473167660547
100.472254794673
100.473055851067
100.477054983623
100.487546013635
100.505279420138
100.538995771016
100.534730184564
100.47708806897
100.429855782491
100.382733448407
100.35596959623
100.37550032511
100.373450132877
100.371774998275
100.372337138967
100.373335075668
100.374297120444
100.37543528066
100.376876462227
100.378500100097
100.380073877793
100.381366063965
100.382227480247
100.382600588609
100.382397130824
100.382037478068
100.381532463444
100.380849200326
100.379951687919
100.378832862346
100.37753626483
100.376058027871
100.374390758959
100.372647142201
100.371001824026
100.369584579848
100.368472563632
100.36766329783
100.367158669199
100.366962920391
100.367047121812
100.3674174057
100.36810913919
100.369147432434
100.37050158151
100.372043100449
100.373348398265
100.373817740765
100.373684908137
100.373667654765
100.373768223607
100.37396220731
100.374182192045
100.374189756194
100.374311775246
100.37437571968
100.374634522883
100.37481209059
100.375007624423
100.375199455074
100.375192737153
100.375284558502
100.375154287807
100.37511105066
100.375039208161
100.374963215602
100.374875108234
100.374778548291
100.374629059918
100.374523676634
100.374354999327
100.37419343703
100.374016563682
100.373824805261
100.373589022854
100.373550793683
100.373490059932
100.373810726596
100.373985041439
100.37416704231
100.374327167542
100.374505258725
100.374627979822
100.374760543904
100.374866522643
100.374961053945
100.375037247109
100.37512574774
100.375236665426
100.375071607428
100.374932203128
100.374675699929
100.374508891304
100.374250154159
100.374219742201
100.374100431018
100.374098993926
100.373844002986
100.373678100417
100.373441594415
100.373539594958
100.37372773473
100.373999189321
100.374012770697
100.374122516314
100.374140896578
100.37439989399
100.374582715179
100.374858949196
100.374993530417
100.374921837513
100.374776937822
100.374463279065
100.37427469943
100.374037176225
100.374023241805
100.373919271243
100.373871849916
100.373622850012
100.373483748052
100.373312209148
100.373346466421
100.373517474706
100.373742157841
100.373810996
100.373910564235
100.373936926874
100.374162094163
100.374332796694
100.374667048689
100.374850170382
100.374750570976
100.374556740205
100.374200385388
100.374051946608
100.373840771771
100.373771864786
100.373702061957
100.373630549438
100.373427643118
100.373318334341
100.373227486436
100.3731710465
100.37332957058
100.373509835659
100.373569922181
100.373560266271
100.37384594118
100.373903464942
100.37409892655
100.3744381039
100.374643430487
100.374526061773
100.374305694699
100.373946585914
100.373720866111
100.373640221086
100.373438729963
100.37346029778
100.37340031298
100.373251029148
100.373179071021
100.373149877885
100.373033876713
100.373165273771
100.373289456497
100.373338533672
100.373339937104
100.373498273342
100.373572842271
100.373766521802
100.374136088371
100.374376953496
100.374186552703
100.373950872095
100.37357399907
100.373426280326
100.373418934617
100.373292969784
100.373248194638
100.373211172172
100.373188275648
100.373094904074
100.37305971848
100.373038950181
100.372918933357
100.373018918315
100.37310226884
100.373128266575
100.373170547711
100.373200092839
100.37334894973
100.373468016023
100.373807032858
100.374018883106
100.373843109557
100.373639397024
100.37330192683
100.373190581652
100.373097079275
100.373073413817
100.373038533579
100.373030504982
100.372956552807
100.372949407211
100.372911276475
100.372824496193
100.37288906597
100.372957618845
100.37294558571
100.372988054429
100.373018366296
100.37307729803
100.373137490389
100.373466043039
100.373667940094
100.37340016368
100.373264654376
100.372995619137
100.372987342194
100.372919534653
100.372891783083
100.372867730318
100.372887414969
100.372828493513
100.372842313025
100.372773654162
100.37271611158
100.372760366783
100.372787346229
100.372783049907
100.372811598844
100.372831865511
100.372861648824
100.37284103759
100.373104034527
100.373223380856
100.373258201498
100.373115066913
100.373027910102
100.373000845096
100.372844515849
100.372760260399
100.372759963637
100.372650073729
100.372743240157
100.372704654843
100.37269051243
100.37269174189
100.372678378486
100.372625749325
100.372563849181
100.372443505074
100.372201914325
100.372429011057
100.372598127361
100.372593524585
100.372619848541
100.372614210423
100.372627724172
100.372635832493
100.372664150098
100.372581030801
100.37270329037
100.372756405357
100.372959247167
100.372832752195
100.372826974524
100.372768519464
100.372586334603
100.372427664207
100.372454908287
100.372372765985
100.372625168527
100.372587644848
100.372569267725
100.372518420981
100.372555807103
100.37252603258
100.372539239606
100.372500211006
100.372551322271
100.372531671933
100.37253255703
100.372370821987
100.371845459293
100.372344678907
100.372519176738
100.37249823246
100.372506545994
100.372499030891
100.372470054137
100.372485524592
100.3725122752
100.372483707143
100.372528605387
100.372471045857
100.372316504876
100.372319275537
100.372242631927
100.372290807826
100.372170177086
100.372319010533
100.372444917462
100.372372791267
100.372425114516
100.372451168832
100.372456042643
100.372467814081
100.372472293205
100.37246704113
100.372470346054
100.372312593584
100.371703890559
100.372310052139
100.372461618411
100.372449554464
100.372438286706
100.372438434608
100.372419288782
100.372411220546
100.372356639762
100.372277967799
100.372378876255
100.372335027804
100.372344084855
100.372340533179
100.372546576545
100.372526904868
100.372603811919
100.372670492788
100.372736605935
100.372771528771
100.372807559587
100.372842830633
100.372894131929
100.372971979198
100.373084855834
100.37320961759
100.373325006947
100.373447739311
100.373587460806
100.373711535884
100.373843213017
100.373970086025
100.374095592713
100.374198118213
100.37441400277
100.374525922756
100.374805224902
100.374868132873
100.375114845056
100.375275936477
100.375252944681
100.37539692439
100.375285681179
100.375182266584
100.375147972522
100.374910798026
100.374776461856
100.374700299463
100.37455311503
100.374438209124
100.374327483055
100.374210823014
100.37406310254
100.373938175643
100.373812565507
100.373674730525
100.373496005056
100.373367295826
100.373226888274
100.373318198418
100.373317357191
100.373604646519
100.373793294408
100.373953989271
100.374062355903
100.374198139228
100.374363762314
100.374478314243
100.374576051892
100.374688535234
100.374811310324
100.374896927177
100.374973943963
100.375136687217
100.375291810991
100.375354387961
100.37523952257
100.375078647472
100.374762200387
100.374323539867
100.374438925766
100.374524072225
100.374856139706
100.375185669706
100.375355213602
100.375443905716
100.375366899667
100.3752515277
100.375073455311
100.374803945561
100.374445375894
100.374347517653
100.374252182997
100.37404070234
100.373877273305
100.37354944806
100.373346763677
100.373190806246
100.373026334325
100.372886629585
100.372702939882
100.3725644714
100.372424124278
100.37226880865
100.372107335999
100.372286153757
100.372596799092
100.372807142388
100.372908350183
100.373044670924
100.373196749628
100.373362815318
100.373472461463
100.37363140759
100.373770823485
100.373971697399
100.374326496847
100.374367130933
100.374557308755
100.374713349907
100.375029904777
100.374835414229
100.374764152664
100.37495879525
100.374802703634
100.374598694985
100.37406952964
100.373954190151
100.374070476686
100.374264268546
100.374280553992
100.374345382917
100.37447704908
100.374576847617
100.374679965459
100.374903536355
100.375227616463
100.375393337342
100.375477814065
100.375432133377
100.375309327795
100.375062240863
100.374820284948
100.374712339321
100.374498493153
100.374187289229
100.373796045398
100.373685215728
100.373503597074
100.373249168467
100.373036584765
100.372873848225
100.372694814252
100.372468056441
100.372256193757
100.372051887419
100.371916906706
100.371716392425
100.371534363181
100.371302558542
100.371124336819
100.370983293819
100.370890190387
100.370678446228
100.370488068424
100.370588585879
100.371002713291
100.371233230628
100.3713538393
100.371385470759
100.371513459677
100.371667420657
100.371866007212
100.372027312199
100.372223703531
100.372365335066
100.372549357553
100.37272604505
100.372974472733
100.373236384015
100.373401640791
100.373755546194
100.373799492128
100.373993464881
100.373796985636
100.374062361698
100.374324572754
100.374363754332
100.374366586792
100.374083044479
100.374215420219
100.37410537667
100.374130357726
100.374313940378
100.374460915782
100.374469067237
100.374620331801
100.374613358538
100.374761558147
100.374961408984
100.37528538797
100.375438733456
100.375530501225
100.375463152754
100.375449481677
100.375412476725
100.375217960094
100.374937704076
100.374608580346
100.374290479524
100.373913024796
100.373459674932
100.373269667574
100.373169749045
100.372953776433
100.372836131748
100.372678462457
100.372513476082
100.372357229146
100.372222546786
100.371962610427
100.37190430632
100.371684752986
100.371477514053
100.371315826983
100.371043436026
100.370794306049
100.370554959795
100.370390770698
100.370180717797
100.370392904262
100.370682940335
100.370935854645
100.371172886253
100.371419747356
100.371533965647
100.371724152481
100.371946374522
100.372143375755
100.372248502644
100.372440139136
100.372636295337
100.372876645202
100.37303125791
100.373286682097
100.37329028827
100.37306718906
100.373296217823
100.373430177
100.373666567472
100.373573912109
100.373697009406
100.374793018451
100.374630435238
100.374560668989
100.374225271818
100.374205251328
100.374365323185
100.374379952976
100.37457901451
100.374561930179
100.374671424751
100.374691129559
100.374962702889
100.375130703419
100.37542009892
100.375598623197
100.375527828349
100.375575361352
100.375520635986
100.37546545561
100.375257205574
100.37502494015
100.3746243324
100.374360889699
100.374149976637
100.373958190717
100.373706634935
100.373410144776
100.373074046173
100.373057025695
100.372973340485
100.372820259494
100.372852546224
100.372655840104
100.372512798918
100.372413629136
100.372267087789
100.372389025015
100.372169147891
100.371953283602
100.371794992332
100.371601898039
100.371388352198
100.371099982006
100.370827377115
100.370563373449
100.370277208155
100.369941848445
100.369582155788
100.369232616853
100.368766341926
100.369046232262
100.369481938308
100.369872875536
100.370096155864
100.370328300055
100.370589874955
100.37085413538
100.37114126024
100.371320148636
100.371510706387
100.371727838533
100.372042759701
100.372243172131
100.372216984278
100.372253091376
100.372410505847
100.372565802507
100.372849672276
100.372942980629
100.372930877742
100.372805683831
100.372778664883
100.37281350186
100.3728087717
100.372759458669
100.373817823633
100.371076060268
100.369884345741
100.369256414433
100.368466307036
100.3678692196
100.367454475286
100.367086118585
100.366863558776
100.36657152654
100.366048563188
100.36545628224
100.362860552019
100.360865949685
100.365234130354
100.365588200811
100.366056033241
100.366947536375
100.368197062397
100.36899148935
100.369609553758
100.370101201325
100.370523508134
100.37091001082
100.371132225479
100.371450901587
100.372140704967
100.370847938866
100.372710097674
100.370099132935
100.373626446012
100.373471414123
100.373807795936
100.373924038505
100.374031759916
100.37409740795
100.374269498998
100.374242199212
100.373719372355
100.372831804732
100.371704408165
100.370144573971
100.368338697008
100.367092748258
100.369070847006
100.369987606783
100.367717542148
100.364911436379
100.362583162793
100.360906718767
100.352253511453
100.355556902956
100.354750985457
100.35837045663
100.359562041658
100.361356937437
100.363577950794
100.362601151431
100.359841471995
100.360115800676
100.358847407918
100.360869904626
100.362241854613
100.362660542344
100.363289583526
100.364465364164
100.364413460748
100.367107137318
100.36836181791
100.369537978276
100.371288569014
100.372154817264
100.372292559358
100.372362595922
100.372319176724
100.372819213842
100.373019054553
100.373172470279
100.373291169904
100.373393656711
100.373531054049
100.373743321765
100.374022555818
100.373924197931
100.373614599527
100.374000510437
100.374016873807
100.374185417155
100.374318479041
100.374150236832
100.37426447039
100.374454838535
100.374565245805
100.374542317436
100.374611648558
100.374858238089
100.375043661585
100.375326470373
100.375474822067
100.375587016062
100.375610089616
100.375435792741
100.375201994877
100.374875740853
100.37492251273
100.375050512697
100.375336239109
100.375488626251
100.375537338243
100.37555435454
100.375468793195
100.375312904403
100.375271313805
100.37520568545
100.375045454059
100.374799967292
100.374449891867
100.374007195843
100.373810233456
100.373611938696
100.373510170811
100.373305543531
100.37318916126
100.37298994188
100.373162337539
100.37304829751
100.373185533881
100.373120593258
100.373009970645
100.372838201459
100.373000819155
100.37284051812
100.37274988435
100.372609482422
100.372455846467
100.372275116228
100.37206272171
100.372165907398
100.371924035269
100.371704570399
100.371482570078
100.371237131304
100.370955402375
100.37066872515
100.370175004011
100.370428672764
100.370780960552
100.371052293071
100.371296217051
100.371539240579
100.371771163969
100.372009593185
100.371859113659
100.371907894316
100.37211255887
100.372302508574
100.372530251959
100.372653963096
100.372834702977
100.372682835838
100.372741556472
100.37293364818
100.37301404687
100.372982218155
100.372910948948
100.372741332037
100.372561633118
100.372273320606
100.372235901619
100.372256947248
100.372649217161
100.372915843842
100.373309437168
100.373618808083
100.37409682411
100.374404841616
100.374494135421
100.374293055664
100.374408549921
100.374499468999
100.374690211275
100.374656690235
100.37477983222
100.37484071105
100.37501972425
100.375360026413
100.375249529699
100.375372442474
100.375457138815
100.375373566633
100.375389515014
100.375331268066
100.375130000791
100.374901928394
100.374775625431
100.374514894745
100.37416532052
100.373910488212
100.373524164367
100.373429691634
100.373291025781
100.373283730105
100.373211701231
100.373265733783
100.373158509644
100.373394051496
100.373257680519
100.373445023472
100.373338756083
100.373310961986
100.373126538709
100.373227688608
100.373094505482
100.372998992137
100.372909540063
100.372807738422
100.372599854309
100.372579352388
100.372398266808
100.372205586469
100.371986005308
100.371768537767
100.371541596926
100.371264247456
100.370965126356
100.37065596283
100.370316438145
100.36990477129
100.369530800426
100.369891982245
100.370293859042
100.370505396879
100.370826099255
100.371127728781
100.37139750761
100.371632760438
100.371874532432
100.372107932992
100.372376586052
100.37256996577
100.372448058921
100.37255683844
100.372691996813
100.372780437019
100.372916603999
100.373123894396
100.373009647651
100.373016518449
100.373096066843
100.373281420151
100.373162723715
100.373120141232
100.372880490426
100.372479509342
100.372300568634
100.372133750737