/*--------------------------------*- C++ -*----------------------------------*\
| =========                 |                                                 |
| \\      /  F ield         | OpenFOAM: The Open Source CFD Toolbox           |
|  \\    /   O peration     | Version:  v1612+                                |
|   \\  /    A nd           | Web:      www.OpenFOAM.com                      |
|    \\/     M anipulation  |                                                 |
\*---------------------------------------------------------------------------*/
FoamFile
{
    version     2.0;
    format      ascii;
    class       volScalarField;
    location    "1.9";
    object      p;
}
// * * * * * * * * * * * * * * * * * * * * * * * * * * * * * * * * * * * * * //

dimensions      [0 2 -2 0 0 0 0];

internalField   nonuniform List<scalar> 
79506
(
100.126504369943
100.128589797262
100.124822383529
100.129365753069
100.136321115156
100.136560948943
100.134620525252
100.135227526942
100.135616967355
100.135790524684
100.13618526726
100.135807092908
100.137487261644
100.136926399454
100.139054754422
100.139080458443
100.137018809193
100.134138828665
100.130927329674
100.130546308801
100.130647963768
100.13240970725
100.129996509027
100.131192083614
100.133133894003
100.137968995361
100.132571016144
100.131558634798
100.130803106865
100.130448598128
100.130541748892
100.130606413517
100.131434812279
100.132393568468
100.137878564085
100.132893163023
100.130909235989
100.129652273215
100.132033110552
100.130240178713
100.130177053688
100.13056498924
100.133789255585
100.136711246699
100.138662955453
100.138537442687
100.131889645783
100.130696858429
100.127309079389
100.127816714926
100.128345232198
100.128185411731
100.128277796111
100.128285499009
100.126043691373
100.129271637272
100.132963081844
100.131479877553
100.128095618186
100.127153322892
100.126128466635
100.126974572544
100.127058047569
100.126395542605
100.127276042546
100.128283463168
100.131786616647
100.133259933119
100.129538718897
100.126324442116
100.128622888036
100.128645270851
100.128494791107
100.128618338106
100.127986688467
100.127483164854
100.131009452788
100.132258570651
100.129844455054
100.133161968007
100.136337396241
100.138134606756
100.136148583627
100.135588146619
100.136657886473
100.134806252135
100.132324414713
100.1281338207
100.133585645737
100.122001161609
100.110785994624
100.116965528678
100.118580391451
100.127841047274
100.121997710906
100.123144081892
100.125865861742
100.12518380856
100.124686214639
100.124714006988
100.124681299849
100.12926123068
100.130064447188
100.12553221775
100.125894184948
100.123361511272
100.122176133982
100.12307077036
100.123082976934
100.122208033808
100.123472623366
100.126107381556
100.125812517282
100.130348391863
100.129558431274
100.124966809591
100.125073859213
100.125060930035
100.125503255691
100.126163600418
100.123335422949
100.12211802012
100.12828966768
100.128767490455
100.125321443348
100.129169361938
100.135689624659
100.14090582123
100.13435200909
100.133818037093
100.138367592721
100.153832068828
100.122718267194
100.123229008017
100.108198939617
100.081547211973
100.082402735402
100.078091894092
100.078799868234
100.084993963377
100.115223694989
100.125488730379
100.122592367981
100.122352606554
100.126502091296
100.132717629529
100.115997106559
100.116555445871
100.117974480118
100.127314414864
100.122367775724
100.122392016253
100.127433280136
100.117982410353
100.116688506782
100.116189315745
100.114777023651
100.115503347247
100.11903227755
100.116842460618
100.076925590402
100.078980808203
100.080276069069
100.080026282717
100.078950784606
100.079001816483
100.080900716889
100.081327995076
100.085440791648
100.114575605654
100.109722925094
100.093406635668
100.087626982383
100.087554182332
100.084866469781
100.085657802665
100.080164498683
100.080273107255
100.082417145836
100.086150325864
100.086060171892
100.082252829247
100.080115865682
100.08547092521
100.084687231888
100.078315987907
100.078923923564
100.085444633965
100.085901251264
100.085040439982
100.084734914448
100.085607256235
100.085474576007
100.084741067837
100.085972585879
100.08605315583
100.086528289239
100.086602611502
100.085956675279
100.081170485976
100.081980072983
100.081950482393
100.081136420888
100.080132785547
100.08108258869
100.080630483937
100.084559999088
100.085839634529
100.086469680944
100.086756040644
100.086061847627
100.086007234692
100.08672278475
100.086635499239
100.084500630249
100.084295709795
100.084383746382
100.084466546203
100.084534543922
100.084399534226
100.086225332773
100.08532036635
100.085308527863
100.085900017913
100.085451878718
100.084651991711
100.085867709515
100.084186508714
100.084093974822
100.084251808541
100.084352278777
100.084164065153
100.084213311613
100.084517427304
100.082083462919
100.082096554539
100.082042985511
100.082117668447
100.082100428947
100.082147353015
100.082079693965
100.082042963919
100.0843599846
100.086195361824
100.086525069856
100.08636651385
100.084297559426
100.081921686267
100.081905947246
100.081803755577
100.081849264674
100.081891352068
100.081869147338
100.081935346001
100.080045771503
100.080163549028
100.080180006459
100.080126542878
100.080187357237
100.080171496239
100.080193934705
100.080124764607
100.080090331294
100.080091306182
100.082046344217
100.084421763307
100.084829390175
100.082226289393
100.080220123034
100.079995545435
100.079974059359
100.07991082812
100.079973426628
100.080011047905
100.079980027701
100.078274055768
100.078344973522
100.078446711899
100.078454319683
100.078398895807
100.078458361132
100.078444017352
100.078453396344
100.07838642142
100.078354771814
100.078354585456
100.078278497392
100.078261901713
100.078225176378
100.078278244509
100.078298792107
100.076553965765
100.076524401731
100.076593118188
100.076690302279
100.07667562474
100.076631468422
100.076704527368
100.076690041711
100.076698482283
100.076646158397
100.076619946326
100.07661580221
100.076549630863
100.076539290131
100.076516437529
100.076551219905
100.074786523605
100.07485168645
100.074700490063
100.074685137103
100.074862088141
100.074837153646
100.07479899078
100.074890992353
100.074883647685
100.074901124287
100.074866599359
100.074848929056
100.074841342187
100.074782349261
100.074772509131
100.074755697541
100.072967048
100.072953463085
100.073047491748
100.072729377038
100.072595692167
100.072861171068
100.072923579137
100.072942566719
100.073057058848
100.073064386297
100.073094683328
100.073081246753
100.073074826764
100.073067027294
100.073017332945
100.07299782656
100.071224611163
100.071157059046
100.071067627969
100.071022168417
100.071192653293
100.071085234031
100.070854144389
100.071022674894
100.071094984078
100.071227112586
100.071260600191
100.071310746894
100.071320857661
100.071324831775
100.07131565055
100.071264137013
100.069522648069
100.069447023135
100.069325406089
100.069193843893
100.068929934039
100.06933559404
100.069377270064
100.068984590716
100.069182909013
100.069262253967
100.069415915811
100.069483864002
100.069566786216
100.06960504723
100.069615091113
100.069593803792
100.067904530933
100.06778680029
100.067651870907
100.067441754676
100.067292534413
100.066944043974
100.066821109456
100.066954185521
100.067133399767
100.067299154676
100.067416796461
100.067623952768
100.067748511486
100.067882190693
100.067954551053
100.067960419516
100.06637194074
100.066235154459
100.066029761991
100.065798563595
100.06544531831
100.065217080836
100.064919244651
100.064542306197
100.064616098328
100.064995813461
100.065224783825
100.065511416374
100.065835563594
100.066041836628
100.066259285194
100.066384708164
100.064883621291
100.064832531034
100.06451152033
100.06417423864
100.063765970176
100.063183565374
100.062739434122
100.062393092419
100.06186375882
100.061874673059
100.062399655869
100.062843019804
100.063448824825
100.063968220777
100.064344389731
100.064652511393
100.062864875583
100.063312628695
100.063180575962
100.062513493434
100.062030667411
100.061275200555
100.060322374873
100.059552701574
100.058977943338
100.057937297103
100.058056928072
100.059247661676
100.059925464809
100.060920339273
100.061805174439
100.062485838517
100.060048513127
100.060420583685
100.061317558602
100.061024381129
100.059706102416
100.059127024908
100.057950205998
100.056284232801
100.054638478183
100.05380802832
100.05194570497
100.052210437053
100.054503074502
100.055485195533
100.057405910473
100.059006560869
100.054175176777
100.055593006825
100.055418396272
100.057766030525
100.057283550619
100.054222929376
100.053827113688
100.052296931697
100.049451444514
100.045735714251
100.045020277754
100.042110989949
100.042274639502
100.045968505429
100.047535571595
100.051320345526
100.042201059153
100.046740881003
100.048473831456
100.046651406627
100.051724142534
100.051011314521
100.044474864397
100.045145245415
100.043318831157
100.039134410029
100.032103315182
100.031350969447
100.027251061585
100.027471328053
100.03283139287
100.03462778409
100.05751000871
100.06312745938
100.069629166781
100.079031867715
100.071130293975
100.074350433591
100.07313462782
100.067744389617
100.073411886766
100.06390283154
100.057728636961
100.053475612254
100.040600638831
100.077860912267
100.099253542387
100.100418748242
100.080851701457
100.040278598491
100.03961381611
100.142686428005
100.228110563077
100.16480296764
100.165881071286
100.162150584649
100.152994579333
100.14564029069
100.192993238038
100.233172965417
100.14141385142
100.152475608063
100.215468024062
100.171165943366
100.169774024962
100.158345367842
100.156629167864
100.164926070528
100.163220591065
100.206419094804
100.144166863536
100.134331383099
100.185980494988
100.140195699848
100.148642956764
100.159131026695
100.249395547005
100.260740998196
100.261614415837
100.251988694645
100.26425452441
100.272778668764
100.287827629032
100.325431840303
100.340471685971
100.242026262011
100.278972235667
100.371808269034
100.317495398921
100.308752520114
100.295520741714
100.316163047004
100.260918470614
100.258938783178
100.31255993554
100.29020459471
100.299073129262
100.307924188097
100.332962572182
100.317163873384
100.280009720575
100.26642885463
100.259752896873
100.337974840281
100.374585258515
100.343508090667
100.344251869869
100.377293184409
100.366214419123
100.342209897018
100.435037338872
100.460852858824
100.43111562124
100.454740218916
100.46132793277
100.418598135953
100.370584210597
100.414392098717
100.362054280937
100.452635552302
100.476654809183
100.460298617926
100.47138617531
100.493502215851
100.460597041788
100.405346043882
100.428198276001
100.464954424382
100.414810813465
100.434693453631
100.436328127231
100.397586886964
100.430731795776
100.409417519254
100.343127112078
100.341833470753
100.40749903542
100.428072708217
100.393084098274
100.431765668105
100.42892564459
100.404563133534
100.449046465792
100.421109661208
100.396188982009
100.407468229628
100.364055968944
100.359854367758
100.4128303776
100.450823182866
100.429289275664
100.441988292547
100.467609549189
100.46605819415
100.443039080652
100.415264786576
100.415085031715
100.475673010724
100.498076550968
100.492762864159
100.490409006377
100.491939863472
100.486553339204
100.471412960174
100.501415981896
100.504715296656
100.500682276146
100.4998047858
100.498092971153
100.492847747626
100.483994449381
100.48701928424
100.491054482322
100.501101038044
100.487741113624
100.504438445206
100.502346836817
100.50058789693
100.498865687884
100.500489572406
100.500930970384
100.499546707587
100.497795958318
100.493724703365
100.483522175963
100.489303253139
100.498004061443
100.475258978852
100.477464984526
100.469243881053
100.476006716262
100.455120534629
100.454592816001
100.476678160706
100.469403248361
100.477406717645
100.476969596161
100.497674439714
100.491723717974
100.480356786136
100.454648009601
100.467741639962
100.454672264137
100.45586470168
100.483672620229
100.48244536068
100.486143928263
100.494209221844
100.50460466908
100.505840822495
100.515480171508
100.511376107917
100.504267620626
100.498579568133
100.502910421529
100.512626034624
100.51323280327
100.514182263531
100.514988923403
100.512699434205
100.507488395251
100.506020790708
100.511937597116
100.512418578296
100.514317040961
100.509689660517
100.505591863256
100.505535427578
100.504380034523
100.502853518492
100.501445014976
100.500239439849
100.497530471483
100.500601509498
100.495510640942
100.503841168678
100.501945266777
100.500770791151
100.49961290376
100.50032871109
100.501337107167
100.500120311324
100.500153062039
100.500442079681
100.500158021796
100.49970196653
100.499855573675
100.500059847446
100.498430330908
100.498612407464
100.498390024236
100.498569353397
100.497161664888
100.496283617622
100.499201173412
100.496034587801
100.497149194937
100.498848316563
100.490305188095
100.491862177321
100.488844507823
100.493498428024
100.49266966087
100.481743846557
100.482393539409
100.494299568307
100.497703388933
100.492014128511
100.497864920367
100.496368084473
100.504767730467
100.505188072951
100.503121880242
100.507104589898
100.504366649791
100.504517619896
100.501332192129
100.499558278966
100.489050853299
100.49135251633
100.497417593258
100.498439058756
100.502943062562
100.509355615313
100.509850580723
100.516621198611
100.516239925549
100.515174491276
100.514932765594
100.515068428812
100.512352537825
100.513915851238
100.514285098357
100.514310886084
100.515032932653
100.514480147929
100.51310715582
100.512271946346
100.511166312798
100.507719496331
100.508556296413
100.509864256429
100.512784561717
100.513215585062
100.513246049365
100.51151569662
100.508003153329
100.506444823362
100.502263748597
100.501185204335
100.500920848198
100.501508590286
100.50356807345
100.506624571316
100.504454135038
100.504616105388
100.503660662494
100.502526071627
100.501087735357
100.500126132183
100.499611962057
100.499998242166
100.501933474016
100.509593376087
100.523861360564
100.560564424201
100.573408488587
100.510447433271
100.46640056666
100.427816615216
100.383474407267
100.358077763985
100.375107127659
100.372549671773
100.37078729534
100.371195584206
100.37206419556
100.372883870879
100.37388559561
100.375219371695
100.376779517975
100.3783707415
100.379809755479
100.380925310033
100.381596809833
100.380114548979
100.378552687781
100.377004363915
100.375503518193
100.374084462557
100.372807385287
100.37170225026
100.370775155512
100.369983811121
100.36929655709
100.368673623128
100.368091370852
100.367563992861
100.367158444738
100.366996092533
100.36719516068
100.367803890071
100.368819830309
100.37005928385
100.371268329646
100.372090216495
100.372395683038
100.372429356106
100.372521113485
100.372532146751
100.372555942299
100.372576219451
100.37260733171
100.372587573112
100.37262613467
100.372610540102
100.37268485616
100.372795354888
100.372767143283
100.372706176441
100.372575505837
100.372543188016
100.372699102958
100.372498133638
100.372514737877
100.372530843269
100.37243244936
100.37233284926
100.372472998211
100.372348773767
100.372470758072
100.372502362458
100.372540372932
100.372461925496
100.372509288511
100.372496868116
100.372478209426
100.372461749045
100.372418477086
100.372433481115
100.372342716794
100.372219997187
100.372111740044
100.372004727208
100.372132672244
100.3722440606
100.372305158056
100.372379800603
100.372372439702
100.372381120894
100.372428215415
100.372470948659
100.372491571421
100.37253340013
100.372582967439
100.372636524328
100.372650883958
100.372676246429
100.372692617905
100.372627523388
100.372843098743
100.372871029454
100.372904751302
100.372922789095
100.372877616887
100.372790629668
100.372705903936
100.372588086132
100.372248111335
100.371820893288
100.371645769192
100.371783022104
100.371969679178
100.372353887338
100.372086380001
100.371867690802
100.371693519507
100.371880743976
100.371894978212
100.37221944872
100.372292275708
100.372161667518
100.372255496434
100.372279273504
100.372420116933
100.372397114137
100.372421912707
100.372493350629
100.372427402798
100.372409283703
100.37246968017
100.372525849306
100.372609198158
100.372622658213
100.372700368338
100.372727087431
100.372740104687
100.37278289067
100.372794525203
100.372970324372
100.373022593351
100.373075422068
100.373143450217
100.37311577006
100.373252932847
100.372910781285
100.372848391731
100.372621020591
100.372668083498
100.372869133543
100.372882127587
100.37306509672
100.373176079995
100.373304587645
100.373330740196
100.373315525228
100.373147410757
100.372951262635
100.372831877397
100.372904527272
100.372955976968
100.373114671888
100.373015522571
100.372973042815
100.372812443372
100.372563353714
100.372468614243
100.372675112184
100.372700448633
100.372782607343
100.372809888734
100.372888680111
100.372947558781
100.372991525168
100.373223446034
100.37335828673
100.373466943715
100.373500557056
100.373492963061
100.373264338419
100.373048172605
100.372633986947
100.372160815499
100.371759604195
100.371923846915
100.372088386814
100.372051637358
100.371893589155
100.37121745418
100.370620114637
100.370118230649
100.370288766584
100.370574731818
100.370437181952
100.370295017638
100.370520215831
100.370829655456
100.371008557353
100.371081783087
100.370824253326
100.371091077454
100.370821306697
100.371422229191
100.372403383633
100.372632245381
100.372523501373
100.372538680752
100.372586505634
100.372646115787
100.372684763239
100.372746761404
100.372755909266
100.372821341085
100.372861604679
100.372928866131
100.372940907125
100.373018365328
100.373108643322
100.373351659645
100.373491570846
100.373585850844
100.373585154395
100.373534123983
100.373371167865
100.373133249572
100.372753716557
100.372286947267
100.371785124079
100.371083857269
100.370707202998
100.370566420939
100.37038635108
100.370270923472
100.369537432439
100.369208192679
100.36904236461
100.368870929287
100.368803760353
100.369243899684
100.369393092007
100.368969519139
100.369269696048
100.369725277779
100.36979230031
100.369931448623
100.370961661055
100.37158303008
100.372402309502
100.372719247122
100.372674039249
100.372661138557
100.372707027132
100.372763258063
100.372799437357
100.372859932734
100.372895956427
100.372960373639
100.372974680098
100.372970493364
100.373077012654
100.373224780158
100.373466617946
100.373617612743
100.373759327322
100.37369097803
100.373729731687
100.37373201605
100.373852921676
100.373713134631
100.373555700464
100.373279009775
100.373004422181
100.37309552168
100.373369747054
100.373589784683
100.373747813978
100.373912969345
100.373878464913
100.373801884766
100.37354306464
100.373288578585
100.373232197203
100.372864645589
100.372416942751
100.371900788167
100.371198150021
100.370851295242
100.370463156648
100.370203150478
100.370120707527
100.36987744557
100.369616378944
100.369362796017
100.369668986833
100.370008549091
100.370291939151
100.370045146936
100.369684703046
100.369480134225
100.369035979607
100.368992107277
100.369119552881
100.368877532598
100.368378033232
100.368631705907
100.368778553572
100.368347713835
100.368373177928
100.367855099163
100.367435847916
100.367078588173
100.366875522681
100.367336042674
100.367727329417
100.368055200176
100.367672903287
100.367840793227
100.36803536808
100.367894232052
100.368523206923
100.367009175387
100.365549159789
100.364610458111
100.364696353058
100.36531830166
100.36616665705
100.368005751685
100.365988150087
100.365085896474
100.364226355082
100.360911543492
100.358163177838
100.362510856972
100.361688414109
100.361527692727
100.359111888861
100.360370508449
100.35790944851
100.360091572231
100.36152751883
100.361999062824
100.363177177548
100.364366080839
100.365551085104
100.366684506302
100.367488590267
100.36696690878
100.368724335587
100.366345979206
100.372683857007
100.371677568577
100.370344165973
100.368679042052
100.367039044699
100.366093823682
100.368271196821
100.369604135067
100.365300927087
100.362768064798
100.361748986702
100.351745909938
100.355179233668
100.35288165239
100.356313205802
100.358199029124
100.368069768747
100.369849796522
100.371546085612
100.371774664521
100.372003417867
100.372075136319
100.372123609485
100.372147869282
100.372159906934
100.372203879634
100.372247466788
100.372214752211
100.372314885559
100.37225333194
100.372136404568
100.372039600412
100.372009013733
100.372176890134
100.372061383226
100.372219132677
100.372245124122
100.372134557231
100.372191077374
100.372191160611
100.372160891099
100.372131036337
100.372111923276
100.37204876429
100.371928725513
100.371914194834
100.371385514612
100.370551999441
100.371594149621
100.371943544913
100.371946438008
100.372044900498
100.372060691536
100.372086019547
100.372095210252
100.372121229713
100.372146894011
100.372107187537
100.372158126037
100.372034525627
100.372064454432
100.372191880908
100.37222470434
100.372174393889
100.37207990296
100.372054385654
100.371606223463
100.371409552046
100.371744271458
100.371655914526
100.372002202762
100.371857254838
100.372013776802
100.372107282939
100.372080402105
100.372115060549
100.372134952193
100.372171609366
100.372126998163
100.372051967008
100.372087315595
100.372049467448
100.372028808687
100.371938316812
100.371905639105
100.371609908151
100.370659006082
100.371790997643
100.371905096763
100.371965199393
100.372038052056
100.372054291288
100.372093170969
100.372134821253
100.372116631621
100.37212944783
100.372089322905
100.372121744343
100.372001803403
100.371784085676
100.371396413182
100.370876311148
100.371539755923
100.371453416921
100.371978727097
100.37175991261
100.372034691784
100.372125968573
100.372121290097
100.372101023417
100.372170456535
100.372115566667
100.372051078084
100.372038270687
100.372017081743
100.371973068917
100.371902717498
100.371826392503
100.371640061719
100.370429993708
100.369031939815
100.370863124695
100.371777719968
100.371856773688
100.371933931832
100.37200869793
100.372033185862
100.372041228024
100.372134129284
100.372176201693
100.372132948606
100.372122469384
100.372112764362
100.372010364416
100.371806314219
100.372120241814
100.37215896173
100.372157584536
100.372160784496
100.37213252724
100.371994114135
100.371831769396
100.371297219914
100.371958701752
100.371896148419
100.372174628559
100.372103854736
100.372208425638
100.372225806289
100.372193016989
100.372101200692
100.372185396896
100.372051545185
100.372063177126
100.372002220796
100.371968129095
100.371882434198
100.371844439004
100.371043747054
100.369554904224
100.371503752447
100.371945673897
100.371952319841
100.372006133794
100.372094527425
100.372016307203
100.372201364909
100.372255870502
100.372069517706
100.372099779559
100.372018152561
100.371983997789
100.371908899596
100.371768304495
100.371207726938
100.36975557958
100.368881067083
100.370703235354
100.371614414035
100.371872760961
100.371980883674
100.372033405906
100.372139593543
100.372057556996
100.372272088774
100.372166905755
100.372281285223
100.372283218535
100.372191134402
100.372053633385
100.371516746704
100.370986842321
100.371610244219
100.372105723982
100.372149771865
100.372367701829
100.372314779565
100.372373139478
100.372372839455
100.372299105291
100.372367646135
100.372125764969
100.372164088424
100.372048140074
100.372026088214
100.371950794904
100.371827298854
100.371050508995
100.369969493393
100.371703410539
100.372010126037
100.372046449971
100.372081197202
100.372212630551
100.372099386149
100.372380412817
100.372266698102
100.372419760974
100.372470690713
100.372410826915
100.372227069882
100.371743103123
100.37221953553
100.372307140885
100.372468040136
100.37247134338
100.372518137103
100.372490382509
100.372381646512
100.37244776356
100.372181739049
100.372202537549
100.372124555903
100.37209934777
100.372026946046
100.371952746698
100.371712727991
100.370453285915
100.369873700516
100.371595846571
100.372037047292
100.372050645401
100.372116225347
100.372172574278
100.372227251109
100.372176375014
100.372431112424
100.372314184437
100.372488574148
100.37253937375
100.372485050322
100.372347661121
100.371776851761
100.372264181937
100.372326347136
100.372466971902
100.37250014432
100.372568839605
100.37241378557
100.372504410115
100.372511563513
100.372426323021
100.37230013702
100.372236089619
100.372204278928
100.372242818378
100.372182667242
100.372135590639
100.37208184072
100.3719861603
100.371673166136
100.370442704862
100.370195738244
100.371621863269
100.372080988892
100.372127609546
100.372174234282
100.372211154417
100.372229974838
100.372277134862
100.372281061164
100.372479341084
100.372410842368
100.372518857526
100.372571251097
100.372536766273
100.3723746144
100.371895453711
100.372288781038
100.372505585271
100.372541683991
100.37248273231
100.372523759535
100.372573689992
100.372551130855
100.372438464746
100.371937876474
100.3722949403
100.372371694199
100.372439551881
100.372555407555
100.372580720533
100.372425560766
100.372489095258
100.372388470927
100.372417584212
100.372484956748
100.372282495403
100.372289939094
100.372338959583
100.372285663288
100.372268317034
100.372227760995
100.372237002417
100.371871780659
100.371745649855
100.372333169326
100.372307983897
100.372331562838
100.372339660356
100.3723647126
100.372358196723
100.37237985772
100.372461222395
100.372495966151
100.372481907472
100.372557054182
100.372548757916
100.372269438954
100.372411183658
100.372508703953
100.372443101944
100.372459647149
100.372448125549
100.372514768621
100.372383996265
100.372399348771
100.372391215252
100.372397928589
100.372411335568
100.372309394378
100.372485725441
100.371818083083
100.372235800068
100.372464443939
100.372453254516
100.372448862745
100.372464343413
100.372450265144
100.372450256319
100.372433201181
100.372520068324
100.372457826345
100.37249645414
100.372564088539
100.372498914728
100.372316264243
100.371898505754
100.372283934761
100.372453246499
100.372521482933
100.37244934462
100.372512646837
100.37256007432
100.372486521101
100.372419706898
100.371960969611
100.372330661666
100.372485338491
100.372543880047
100.372485688275
100.372490452331
100.372501119048
100.372540411589
100.372466503743
100.372467744394
100.37248045945
100.372506069414
100.372487066878
100.372529219683
100.372383120087
100.372596582161
100.372001652149
100.372712917833
100.37251873403
100.372600330857
100.372545659883
100.372574822434
100.372568356681
100.372535341478
100.372554389046
100.37259593588
100.372548012514
100.372555160964
100.372638168058
100.372594923161
100.37255484283
100.372142259734
100.37247565102
100.372575314039
100.372582991372
100.37254872046
100.37255605808
100.372594752971
100.372627357879
100.372743295569
100.372528037704
100.372188173641
100.372684026473
100.372834265341
100.372814538593
100.372813010753
100.37286013
100.372736198516
100.372611176804
100.372608132844
100.372605172677
100.372606785692
100.372586590499
100.372545341671
100.372556962876
100.372590310355
100.372684506943
100.372609698572
100.372663105743
100.372534871482
100.372705045051
100.372192424804
100.372747610017
100.372667749778
100.372839781361
100.372761649187
100.372759538989
100.372789674232
100.372678726668
100.372649884134
100.372667546664
100.372678040777
100.372624832904
100.372703375324
100.372766427949
100.372842107454
100.372775320794
100.372758492866
100.372936810566
100.373146623099
100.37310955321
100.373161215481
100.373025275053
100.373211383561
100.373507595077
100.373536550817
100.373648524602
100.373366360606
100.372944955147
100.372863765914
100.372984427706
100.372824610445
100.372833185279
100.372728542094
100.372776450421
100.37289099981
100.372795154813
100.372881765947
100.372854272664
100.372992216395
100.372825475747
100.37294905317
100.373103208572
100.372518130995
100.372654995635
100.371442445041
100.371801901447
100.370457415091
100.370970198806
100.36959137712
100.368624356005
100.368988420935
100.368192292864
100.368770658495
100.368038037637
100.367637427814
100.368260077828
100.367935913136
100.367797955844
100.368824399148
100.368882917836
100.369068604068
100.370528643124
100.37072263663
100.37179726871
100.372036130716
100.372145477244
100.372196219737
100.372258392191
100.372260271876
100.372306131772
100.372328558454
100.372355855023
100.372308733816
100.372374932275
100.372269652996
100.372306358871
100.372375004372
100.372373031493
100.372331766696
100.372251304365
100.372346709552
100.372268617162
100.372268436538
100.371948836333
100.371820233401
100.372024251642
100.371829694318
100.371449632714
100.371061202373
100.37099834655
100.371303314539
100.371358862609
100.371880968554
100.371752676035
100.371434972788
100.370919190832
100.370275748533
100.369588846448
100.370106037155
100.370351078253
100.370249328584
100.370883068651
100.370866960058
100.37090145063
100.370644341508
100.371017697251
100.371531826796
100.371694244249
100.37202218343
100.372034911908
100.372147363347
100.372146173127
100.372061928476
100.372072958248
100.372098682556
100.372120445072
100.372149888528
100.372161559388
100.372183676813
100.372223740671
100.372227684097
100.37226300495
100.372272031943
100.372313380221
100.372365418246
100.37235555845
100.372388151826
100.372419462961
100.37240759412
100.372488503008
100.372458911693
100.372377846639
100.372470383332
100.372351430293
100.372392083562
100.372399022147
100.3724283067
100.372416729346
100.372391599629
100.37262915646
100.372651078362
100.372583060368
100.372638336669
100.37269717998
100.372765555229
100.372829575794
100.372920128248
100.372987805942
100.373024163861
100.373066347165
100.373146654537
100.373194389885
100.373352139775
100.37355963834
100.37373436046
100.373898117986
100.374044061932
100.374005168181
100.373927569102
100.373694960814
100.37334945356
100.373098189093
100.373218088173
100.37284447588
100.372480125811
100.372001260661
100.371292136604
100.370980405455
100.370606103261
100.370370695837
100.370309366794
100.370115619307
100.370396450666
100.3701486658
100.369795718368
100.369447079364
100.369273548453
100.369787628139