/*--------------------------------*- C++ -*----------------------------------*\
| =========                 |                                                 |
| \\      /  F ield         | OpenFOAM: The Open Source CFD Toolbox           |
|  \\    /   O peration     | Version:  v1612+                                |
|   \\  /    A nd           | Web:      www.OpenFOAM.com                      |
|    \\/     M anipulation  |                                                 |
\*---------------------------------------------------------------------------*/
FoamFile
{
    version     2.0;
    format      ascii;
    class       volScalarField;
    location    "1.8";
    object      p;
}
// * * * * * * * * * * * * * * * * * * * * * * * * * * * * * * * * * * * * * //

dimensions      [0 2 -2 0 0 0 0];

internalField   nonuniform List<scalar> 
87341
(
100.100404222433
100.1024163195
100.098810443537
100.103322305109
100.110339041934
100.110575296736
100.108610668226
100.109211373773
100.10941905807
100.109742336667
100.109911577414
100.109643453285
100.111424257329
100.110970223363
100.113203304315
100.113252327326
100.110764049593
100.107324122322
100.104819601436
100.104485830566
100.10435700976
100.105785607232
100.103591073076
100.105338046831
100.107652581555
100.111803939734
100.106422803625
100.105379125583
100.10462147717
100.104423015792
100.104301179566
100.104723505355
100.10531371083
100.106307431734
100.111550607323
100.107491769068
100.105117073525
100.103295470267
100.105427498231
100.103971511713
100.104156533387
100.104496373995
100.107026769186
100.110458984098
100.112812122188
100.112660551117
100.105909977509
100.104985166854
100.102125092294
100.102227751319
100.102562916083
100.102409028912
100.102348826144
100.102143990256
100.099789227172
100.103191844293
100.106632212093
100.105087253973
100.101824177104
100.100805244442
100.10009496211
100.100775673407
100.10072104603
100.099948871407
100.100865732908
100.101898502012
100.105237923956
100.106844788404
100.103444343311
100.100035976
100.102473856887
100.102688113248
100.102688830874
100.102822967633
100.10238273348
100.102280834389
100.105291078701
100.106317831246
100.103904524438
100.10710022007
100.110181203779
100.111699505756
100.109555877616
100.10931830157
100.110535955242
100.108696252596
100.106227314108
100.101972115676
100.107435358071
100.095916180017
100.084717314466
100.090724349871
100.091933988169
100.102053272466
100.096887024355
100.097935086038
100.100528386316
100.099508856951
100.098986479198
100.099129018168
100.098430213185
100.102798872551
100.103372692881
100.099211797632
100.099632633385
100.096853968367
100.095709985622
100.096702679671
100.096721304997
100.095781263686
100.096904147793
100.099650017903
100.099353757372
100.103542580254
100.103081648685
100.098602529527
100.099504015454
100.09933399177
100.099796573602
100.100812250047
100.098109175528
100.096974821043
100.102501963086
100.102803760475
100.099464796359
100.103173214119
100.109568868979
100.114558304171
100.10750982528
100.107332041677
100.112148934299
100.127488716931
100.096958845663
100.097525837797
100.082141178708
100.055318023746
100.056207665599
100.051944203986
100.052437938365
100.058585825753
100.088826065505
100.100219915891
100.097008500966
100.096693679207
100.101364909886
100.108005177457
100.090027535817
100.090617492663
100.091949560591
100.100867684261
100.096071465583
100.096069470395
100.100836949963
100.091991704402
100.090690784674
100.090154217682
100.088611387151
100.089094711525
100.092395353397
100.090645090171
100.050750528298
100.052826652353
100.054057779439
100.053826257257
100.052867659485
100.052908625355
100.0550397032
100.055431806419
100.059088217438
100.088437385256
100.083587188824
100.067242783885
100.061525694762
100.061366627943
100.058478065832
100.059429668424
100.053898595549
100.054072077274
100.056427307825
100.060139291404
100.06014939879
100.05644502254
100.054069897025
100.059228491525
100.058325359191
100.052006758379
100.052885640183
100.059283604651
100.059709362134
100.058832115713
100.058518307531
100.059434012185
100.059285009292
100.058412651088
100.059514898326
100.059597320888
100.060275358368
100.060430620132
100.059793535559
100.055074986809
100.055878938717
100.055871333763
100.055126954872
100.054064454759
100.055189057223
100.054808396952
100.058282153294
100.05943453074
100.060194237023
100.060500854038
100.059822811339
100.059747010793
100.060433388222
100.060319497773
100.058173679057
100.057928832729
100.058042690734
100.058230412539
100.058328999455
100.058213049949
100.060014680705
100.059130815905
100.059114959512
100.059710493255
100.059195839243
100.058274210778
100.059428733748
100.05789190262
100.057782242688
100.057979074283
100.058074609977
100.05787866422
100.057912515623
100.058172162784
100.055735210979
100.055786038793
100.055714152047
100.055823981147
100.055897760236
100.05598906028
100.055964571593
100.055945992933
100.058185041878
100.059979236205
100.060287450958
100.060087249097
100.058069333274
100.055756770784
100.055679942272
100.055562518714
100.055601116685
100.055616298954
100.055564696122
100.055618182282
100.053628483332
100.05377935471
100.053811702213
100.053698846204
100.053814652998
100.053967989158
100.05410906869
100.054099777239
100.054085692444
100.054063503047
100.055925945612
100.05823653207
100.058650163744
100.056146095337
100.054334175737
100.053858077889
100.053704392905
100.0536170479
100.053725859238
100.053731880424
100.053603161125
100.051590366195
100.05154590356
100.051886331958
100.051886294688
100.051667461794
100.051808976915
100.052177026662
100.05244050086
100.052411527646
100.052406084895
100.052436794205
100.052131851085
100.051764468496
100.051696133515
100.05194139569
100.051937653528
100.049620935894
100.048947076866
100.048808867414
100.049447645827
100.049538330169
100.049109467007
100.049257085954
100.049946473094
100.050408778864
100.050376615503
100.050396533224
100.050477718118
100.049999606262
100.049304294139
100.049257694191
100.049698638023
100.047324104339
100.047111563386
100.045667824228
100.045309865446
100.046696138497
100.047018247072
100.046884687094
100.04712395364
100.047658633896
100.048479404407
100.048147672648
100.048235849711
100.048670541576
100.04789102032
100.047366623405
100.047189366793
100.042554694415
100.036982432615
100.035781051265
100.038438451434
100.038484071057
100.03664062642
100.037017371089
100.042150332587
100.043318156878
100.040173530653
100.043030719954
100.04448280506
100.044668605851
100.0435429395
100.040701612237
100.043860168791
100.065454451761
100.064983580786
100.066251199607
100.068806470262
100.076529426151
100.066397724057
100.066147387064
100.075505757684
100.073188213112
100.065952660651
100.072712981895
100.084787461835
100.08305556272
100.071838751987
100.063223655256
100.062148842763
100.059470170503
100.06438973018
100.066892511354
100.072176831346
100.066038803791
100.058793266684
100.058158973124
100.055129241605
100.049802225569
100.048654237192
100.052639754552
100.055730557629
100.056468168506
100.059899145649
100.073511168468
100.067174516349
100.071320231964
100.064884821356
100.066473735857
100.060858591536
100.072108719647
100.070512591149
100.069240165978
100.074273527961
100.09410811683
100.130851609644
100.174356834993
100.225009391355
100.27552390967
100.329634193624
100.372091063624
100.404663396836
100.441867127444
100.467398915955
100.478253084093
100.489839779065
100.46044587494
100.464429056907
100.466166188324
100.466540311691
100.466724950186
100.465205146836
100.46429443875
100.471224454233
100.469205343329
100.469996891481
100.472859823365
100.472750228258
100.472482973368
100.471587210376
100.468256367378
100.442964581034
100.454885421487
100.469337006907
100.464201444923
100.455091937704
100.44213244712
100.441219507748
100.448260314393
100.442981484357
100.419616952051
100.425941972123
100.436868027477
100.438062452782
100.427318016413
100.425625750162
100.434929900361
100.444506198052
100.442249790959
100.455710167162
100.406467811441
100.414906444405
100.41865444337
100.419890040904
100.41665182377
100.407018667643
100.410400065076
100.411703626008
100.405313266839
100.397159254206
100.402815446183
100.408900891807
100.409062787921
100.402619724792
100.394447515698
100.39933284614
100.407979856211
100.409657994368
100.457288266216
100.452147876428
100.395613243533
100.397184912445
100.393552504786
100.394250045886
100.398302942904
100.389183632869
100.385606054252
100.394506241829
100.392953618404
100.391665635216
100.396139829392
100.396146844633
100.401000650378
100.397014146676
100.395235618022
100.406984877974
100.429581390307
100.455931317889
100.458706735111
100.467949249792
100.466178239234
100.467066399795
100.469160147828
100.473101452665
100.47488599704
100.478106688504
100.474209933656
100.4757534048
100.478528291916
100.480444704594
100.474966052563
100.486463032273
100.469632604029
100.456538848828
100.454946475558
100.467822249944
100.462074362718
100.455214346749
100.451383884393
100.441548903826
100.434786591576
100.453996685754
100.4702804918
100.473183153681
100.473005053074
100.428872117236
100.426668328462
100.424617170593
100.419184370253
100.413402929389
100.41967679285
100.416950113559
100.405127716996
100.41047663496
100.416865104267
100.40980557184
100.411485107439
100.410310548847
100.408882405007
100.404965032825
100.405190973594
100.409615208298
100.408858747916
100.413513133779
100.40656799965
100.401057111332
100.41291820661
100.41902199443
100.429782524055
100.439895104313
100.441503799566
100.43611589213
100.42860288182
100.428725140828
100.463488235449
100.492380126975
100.477033465834
100.49797956203
100.51304527481
100.475941529504
100.453395419561
100.450248562523
100.465971947388
100.468818292367
100.47293875053
100.507382169899
100.498432876502
100.495452145155
100.476595234834
100.483118705168
100.473670258675
100.472166818262
100.476414473404
100.472821004225
100.487701903955
100.470163661668
100.477555850731
100.475188667266
100.476356294914
100.479489185307
100.487783914849
100.496047363751
100.497794383225
100.482739001521
100.479642327006
100.479827791123
100.487128480485
100.481896007241
100.453951713036
100.421802771555
100.418872515666
100.426528501539
100.430319631635
100.427866700739
100.417384194116
100.406735887938
100.39724831498
100.407402408241
100.391798330125
100.387189953748
100.400430515003
100.398159781791
100.406527177168
100.401490211922
100.390651091707
100.387988622248
100.403726235047
100.418506021757
100.416428642941
100.415310260247
100.405652554646
100.452208452486
100.451941921291
100.450096334096
100.408049598582
100.417111521078
100.420468988451
100.421004328303
100.419407178602
100.41920039441
100.434259722004
100.453950491771
100.46400140378
100.459760882487
100.414148973376
100.4136062303
100.397075872319
100.401879614714
100.408898382358
100.408960717443
100.401590405674
100.393378487452
100.39259656775
100.399274963781
100.414514330217
100.41532174315
100.429795828079
100.460043664238
100.494068593723
100.49196440912
100.478986472348
100.480750237545
100.479493385039
100.491001085534
100.495307487736
100.480933048544
100.481610656337
100.474458545061
100.502341079706
100.498747837562
100.499930368735
100.494809675683
100.480353182263
100.481440214766
100.494647619227
100.492124373535
100.486854948303
100.486673255466
100.488759446131
100.487257887997
100.491181634575
100.474091567816
100.479864268829
100.457218312943
100.444096904329
100.443140563024
100.446883905917
100.459355467457
100.440369890157
100.443375465203
100.440319445594
100.436878884105
100.434121899391
100.434395208739
100.465776793601
100.464436527261
100.46526191992
100.466893084925
100.461964774794
100.46410310313
100.465744083617
100.46364950539
100.463299274471
100.463566786887
100.462171852764
100.463996946175
100.463490205648
100.46440353945
100.464642449282
100.464552547321
100.465603391508
100.466269321473
100.466349201863
100.466726885063
100.46679470299
100.466350314516
100.465708799809
100.465515023477
100.464558180987
100.46474656604
100.465112967869
100.46530350813
100.465581201209
100.465146973231
100.465209335044
100.465327361483
100.465009934605
100.464452599997
100.464492121061
100.46443432434
100.464679128003
100.464523060723
100.46452458034
100.464512855115
100.46467713999
100.464596147591
100.464504517304
100.464505159053
100.46453984684
100.464547957069
100.4644993768
100.464441654688
100.464363521871
100.464179118567
100.463988667904
100.463894606339
100.463687698794
100.463125305699
100.463175193514
100.462691640444
100.462874418166
100.46687319428
100.469210125409
100.472127076722
100.473749671706
100.473221549222
100.473899183723
100.473613557627
100.474478098286
100.47370103732
100.474519724147
100.474080532302
100.474578631222
100.473752104065
100.474178557989
100.473767242223
100.474973047
100.47486304312
100.475641006554
100.473798641575
100.475732094145
100.474955199957
100.474045280628
100.472818063124
100.470141293887
100.471446068532
100.471008176566
100.472660140188
100.476625157802
100.478120181469
100.475992716007
100.474238547568
100.47289570073
100.473459980574
100.472365879077
100.469198366261
100.469619436943
100.470519794625
100.472436787176
100.473148507975
100.475064028154
100.474584781043
100.475340912202
100.476676885868
100.474269955945
100.473541952626
100.476053527201
100.475352329288
100.473960478131
100.474495904953
100.475413091221
100.476191796771
100.475582571515
100.476325379631
100.475284041407
100.475835107534
100.474848917922
100.474374717335
100.473993804796
100.4742380031
100.473620717612
100.47357477349
100.473943391312
100.472781726397
100.473356674122
100.4712970214
100.473268493203
100.473643212445
100.473693748089
100.474460859535
100.474852985007
100.476298152864
100.4749575033
100.476780116875
100.474287349745
100.475649601343
100.474286615336
100.474901039541
100.473917703814
100.473484593757
100.475277998821
100.474771104649
100.474336445584
100.473106819857
100.470126524901
100.467409422515
100.465454188209
100.466599446787
100.46415980769
100.46060990551
100.47077417843
100.470339755023
100.470124721035
100.469357166237
100.468770606733
100.471798696573
100.474475280673
100.4757737178
100.474064213204
100.476152645548
100.476312115406
100.475427729195
100.476490506211
100.475850477428
100.4744158796
100.475596941818
100.474121258004
100.473258854835
100.474009373906
100.472506358731
100.472013524922
100.469391124286
100.471220867338
100.468840412373
100.467088708827
100.469650668813
100.469976014981
100.470808764595
100.467772775781
100.464371709759
100.464218804772
100.460669246424
100.463140079653
100.463337979309
100.462514334945
100.463811465075
100.464235029926
100.464232752691
100.464339098454
100.46448146267
100.46450648264
100.464507818941
100.464417938118
100.464382255336
100.464355475832
100.464270979781
100.463905331169
100.463821351661
100.463323262344
100.462807817567
100.462616409296
100.462868772315
100.462088221977
100.458824769782
100.46002030713
100.462215596218
100.462480057064
100.464937828401
100.468518762865
100.467025647408
100.464137178354
100.462732487609
100.461041064091
100.463605563507
100.465089840589
100.464563223226
100.464176593801
100.462697369078
100.463294896547
100.463691115857
100.463521924436
100.463895016303
100.463523720873
100.463709222808
100.463750948744
100.463553488287
100.463297282698
100.464239556795
100.464024961783
100.46442504745
100.464171064185
100.464508044499
100.46445439926
100.465186588079
100.465187475607
100.46520870991
100.465297858644
100.465736602937
100.465971226625
100.466274222942
100.466085701916
100.466176778285
100.466233126417
100.465975406979
100.465332539166
100.465429984616
100.465027291992
100.465004261176
100.464865319423
100.464667326635
100.464606657363
100.464541859639
100.464307524098
100.464261932051
100.464142013475
100.464310901778
100.464252779036
100.463804608796
100.463242819922
100.462208234031
100.463761859037
100.461658289936
100.463354524401
100.464098189277
100.46406727351
100.46460687668
100.465192199812
100.464959155052
100.464812516171
100.464921727815
100.465207945975
100.465322939731
100.466104444082
100.466244820688
100.466682639183
100.466977335828
100.467074343248
100.46674634529
100.466642795806
100.466914372641
100.466574654891
100.466379060507
100.466360365137
100.465847303429
100.46566889415
100.465624151798
100.465044225121
100.464824760585
100.464621973008
100.464047224744
100.464047868682
100.46397895458
100.464060768612
100.464363498288
100.46434309773
100.464385911408
100.464270951031
100.463912942733
100.463909875603
100.463048573459
100.46282601469
100.462826951661
100.46171999482
100.461123373187
100.461763750437
100.461753971583
100.460890146307
100.461511335765
100.460145140263
100.45713403606
100.454436230512
100.454622595488
100.460179075741
100.461424745054
100.464461975022
100.46571695248
100.466746756447
100.469455382658
100.471169653911
100.471051959672
100.473523500864
100.472981024383
100.474384786917
100.473746441144
100.4706866864
100.461524770629
100.458717121685
100.457178779323
100.456554790084
100.455516350558
100.45385424838
100.455549306635
100.448563141045
100.44214568717
100.428651242884
100.414329085391
100.439654646329
100.440084981257
100.439164423289
100.43987690467
100.443760785853
100.44874657139
100.440968536488
100.456136902689
100.466758981758
100.461793516639
100.469794071795
100.463802841672
100.460542378624
100.467737643258
100.46085664036
100.4591108308
100.465082169063
100.456806458079
100.458223977244
100.450164397093
100.45923109771
100.451383101279
100.454228171621
100.451639069942
100.451905179658
100.453768653263
100.457155497148
100.461363637117
100.463692230237
100.462158757713
100.462219572865
100.462949245593
100.460731078813
100.46116239359
100.462794544732
100.462541540365
100.461756530741
100.462108556574
100.459907027887
100.45882561079
100.449613476831
100.438051684521
100.426080494189
100.420295483456
100.4182149203
100.429545839664
100.426568785624
100.435128307385
100.43183099037
100.430781269314
100.429955533688
100.43118549714
100.4345418599
100.433932061373
100.439890592341
100.411812310661
100.396999067596
100.395564524058
100.400494834186
100.418409778376
100.417741223981
100.396781558154
100.383599611121
100.385256529006
100.354743505515
100.352885478155
100.352525396257
100.359224121466
100.346661963443
100.329990895942
100.299723617025
100.283794845069
100.322293495533
100.313077176651
100.314838523695
100.326242972159
100.357581983167
100.368595210142
100.359059255888
100.389793285344
100.411673166044
100.411521030688
100.409580917031
100.408389774884
100.405593394833
100.392688445295
100.417753193935
100.396778590971
100.406574453624
100.398471521556
100.400075115692
100.404354499172
100.413994445517
100.439314908424
100.445940952752
100.457737960838
100.463183647431
100.458660182338
100.450286981335
100.443839303111
100.419625765539
100.40115990157
100.36816642121
100.346884569135
100.336157679627
100.331990445958
100.33590155283
100.35614248766
100.347237985703
100.355520366431
100.34492855038
100.349284303887
100.34895552922
100.348766388414
100.354317452914
100.311318070511
100.29779443164
100.306949465095
100.33999014314
100.383457647397
100.414010727992
100.437715314448
100.455130601208
100.462899349881
100.467256002359
100.468505744689
100.469283483856
100.478162906713
100.513224777131
100.495149946563
100.493781981624
100.495347471763
100.492102428102
100.494395823871
100.49723534873
100.51622028372
100.50171765888
100.494956730438
100.489805197961
100.459069839547
100.442519231192
100.442679495202
100.448221176859
100.465972079866
100.454218240188
100.448838752151
100.443871216526
100.434923480137
100.437453640987
100.446326567253
100.448674080832
100.44280040762
100.443372019447
100.452306521859
100.456390076744
100.45782315645
100.469310685243
100.439181869057
100.4354692661
100.430535380428
100.421004466038
100.422030064128
100.435538036713
100.424456960884
100.423620414842
100.415830973941
100.410648494519
100.418072428606
100.423520250167
100.469757550972
100.471341706377
100.468245500492
100.472806741615
100.463831142676
100.46783692346
100.46458605076
100.464987202202
100.46091942383
100.461735504331
100.46067739487
100.460870035348
100.460163373941
100.461865367038
100.461504790626
100.460801305752
100.459809588316
100.459017879727
100.458678846301
100.45648029295
100.455710733673
100.454428482587
100.454826196099
100.455562636909
100.456258300001
100.458599397839
100.46128391218
100.462443287105
100.460901339575
100.458843343038
100.457405457367
100.456214644142
100.45422424987
100.453047256767
100.452971292084
100.455200069459
100.454297718263
100.454660894943
100.455489123144
100.456463413803
100.458253077843
100.459730708161
100.460276562609
100.46157722625
100.464059598372
100.46188950543
100.461244972085
100.460965118938
100.460784013162
100.462167397691
100.462746549193
100.464393449775
100.463794570609
100.463657574138
100.46401151419
100.465532019988
100.465568502795
100.465250467844
100.463369392228
100.462268220262
100.463074827117
100.4648553451
100.466727715831
100.467389564768
100.467010750291
100.466418664256
100.464610140997
100.461925026321
100.459422998449
100.457329077553
100.455818062234
100.455671047348
100.45546694196
100.454486356397
100.453670841834
100.454752650577
100.454465075003
100.455329200462
100.456237583709
100.457990428673
100.460668295709
100.463795676098
100.469453165918
100.470070294282
100.469467647804
100.47024674608
100.469141168677
100.467076749314
100.464570686996
100.468395441294
100.472092432799
100.475433623497
100.476907563792
100.477395507242
100.480507332882
100.479222291727
100.476979573709
100.472972288043
100.469444973408
100.464223374511
100.462354477082
100.458525918674
100.456583304664
100.458095871451
100.461358801316
100.461907440949
100.462825535261
100.463978343971
100.468615352364
100.471535064297
100.474897654273
100.47668630286
100.476776895719
100.473711513149
100.475991631049
100.4779565517
100.470385819388
100.465178039713
100.461082865133
100.460100096832
100.457125651485
100.456055683599
100.454847877021
100.454180547788
100.453965691018
100.453693015854
100.453571344708
100.453363456651
100.453415130363
100.453568321553
100.454300146277
100.45407380293
100.454613840323
100.455629193899
100.45636007068
100.456858577243
100.458153052984
100.458517561678
100.458873599333
100.459110806334
100.458592499744
100.458063047111
100.457031697436
100.457293312846
100.456431773856
100.455593687307
100.454627837487
100.454127354756
100.453507456366
100.45342278578
100.453500712214
100.453605871753
100.453916248738
100.455432177886
100.456152773335
100.456675415188
100.458895770643
100.462054224204
100.465140807436
100.469022491531
100.471715934868
100.472435621281
100.471977220227
100.471475188056
100.470266859058
100.467858658531
100.465856429388
100.462866187151
100.461001043204
100.458601740127
100.456353182018
100.459116767811
100.460213488095
100.462783018587
100.462170086936
100.464601349303
100.467440150595
100.469546110422
100.471553526467
100.472126815633
100.472061425256
100.472206510199
100.470104003312
100.470562609699
100.469957786992
100.465998276901
100.463995912959
100.461152645635
100.45829937885
100.459948010183
100.459065484702
100.457664139557
100.455982656118
100.454879100731
100.454234193366
100.45422053154
100.454127720509
100.455526414193
100.455649812026
100.456978333286
100.457547250866
100.458404038431
100.458977249746
100.458171478465
100.45896766822
100.459631893631
100.460049361857
100.45935711529
100.459841137028
100.460227533116
100.460853805727
100.46122790476
100.460443831388
100.459955878891
100.460781610396
100.461254412868
100.462115733109
100.462707776873
100.461897646891
100.461787564028
100.461635516956
100.461433005135
100.46074809162
100.460384487854
100.45973219829
100.459529874671
100.457963678085
100.457222820169
100.456638111487
100.457091404855
100.457397061471
100.458662732639
100.460317837618
100.461636091135
100.462070449787
100.460936574876
100.459676075306
100.459006314719
100.458117368418
100.458103513737
100.459396314524
100.459989569846
100.457435642008
100.455120031938
100.454178418113
100.453835327309
100.452736394145
100.452129198103
100.453130288499
100.454484406896
100.456346078289
100.454800589467
100.454362013989
100.454211103561
100.453226960557
100.45138580057
100.45025264328
100.44977436697
100.450394508117
100.451377643798
100.453004720988
100.453076864881
100.451597715399
100.450965418858
100.451635023016
100.450342122124
100.451386502217
100.452735413648
100.455083498739
100.454778346316
100.454202823613
100.451994175853
100.451627322624
100.45211630113
100.452909312781
100.454633258776
100.456322840353
100.457741224957
100.460218348145
100.459369508819
100.459591651502
100.461061124473
100.461556420945
100.463078016924
100.464900717089
100.463402085744
100.461391641706
100.459582900183
100.459205667606
100.459767138339
100.458995401472
100.458062642946
100.457605123029
100.458238675253
100.458933836097
100.461411209595
100.460514281705
100.462770581771
100.463361140616
100.463886049024
100.465680738302
100.467137015509
100.466574818003
100.466040976129
100.464643152242
100.46369354158
100.46339897353
100.463297212118
100.463288219506
100.463602440945
100.462383551882
100.460879010838
100.461754861405
100.460673898203
100.462561589877
100.461833478872
100.461956140057
100.462398647235
100.460640373652
100.460422782887
100.461072876792
100.461495484502
100.463187310196
100.463974821467
100.46439209181
100.464319217089
100.464280942894
100.463900175659
100.463839398595
100.463729315134
100.463308780961
100.46307345991
100.46335066374
100.463425679524
100.463469161456
100.464038265567
100.464059505479
100.464916421406
100.465099296128
100.465089063359
100.464652563802
100.464521790205
100.464348689244
100.464295832944
100.464077075326
100.463989768319
100.464056494844
100.464243063441
100.464464271128
100.464829630456
100.464936255413
100.464765128958
100.464681612335
100.464628292973
100.464621234731
100.464452877963
100.464153867431
100.463887569234
100.463806826971
100.463630276025
100.463364295363
100.463306045285
100.46310222632
100.462973001387
100.462548744637
100.462609148572
100.462401683047
100.462701750235
100.46179813376
100.461611322242
100.460742607941
100.458894827528
100.461874255795
100.461825285084
100.458393628068
100.457659597712
100.458387881271
100.457696289093
100.456093842076
100.455557516483
100.455769403799
100.455140008692
100.456655854792
100.45632530222
100.457130169311
100.457755390222
100.456035049905
100.455319915121
100.455177039508
100.456130286059
100.456576583636
100.458044796453
100.462939963201
100.464250906389
100.46527761055
100.465830041143
100.466555347958
100.467665074741
100.467402540837
100.467486123734
100.467330481428
100.466859493713
100.466116719225
100.46693786094
100.465849667779
100.464927413476
100.46501905394
100.464927695733
100.465000866851
100.464779286292
100.464853436822
100.464553768682
100.464155615705
100.464340421985
100.464233836607
100.464027147597
100.463460997961
100.463401920335
100.46357429026
100.463517597737
100.46313955476
100.463017028139
100.462561587217
100.462203300407
100.462612022997
100.462127722384
100.462125174569
100.461219045372
100.461150177703
100.460307250793
100.458601495788
100.46203276382
100.46014745625
100.458419145475
100.456826118896
100.456518535427
100.455599407907
100.456545386378
100.461058080841
100.462709394183
100.463673892649
100.464991765879
100.46595061034
100.466304216596
100.466410154382
100.466563901537
100.46784919257
100.471104167322
100.474609569111
100.47552375202
100.478667778886
100.483363509858
100.513401468091
100.520411228782
100.475472847927
100.431513472308
100.383552078789
100.357264095558
100.374303872286
100.371544947556
100.369172892102
100.36938824095
100.37026293759
100.371184050538
100.372389754271
100.374086634484
100.376177895832
100.378366498493
100.380262441482
100.381624573274
100.382357541671
100.380894909844
100.379112370431
100.377081354675
100.374935124477
100.37285209117
100.370987668643
100.369416827131
100.368154330203
100.367160352215
100.36636858403
100.365755323402
100.365345014898
100.365209436673
100.365386941025
100.36595848044
100.367094417266
100.368829326747
100.370896090685
100.372495787969
100.372933716631
100.372884731424
100.372895790176
100.372904972245
100.372894610573
100.372899428461
100.372906190347
100.37289965864
100.37290277945
100.373135891747
100.373197833558
100.373265851119
100.373125863717
100.373054980119
100.372995928723
100.372871856379
100.372836552234
100.372814818008
100.372784704449
100.372863999859
100.372825145814
100.372829485411
100.372840818021
100.372849503921
100.372873331035
100.372809039453
100.372782145282
100.37280617928
100.3727805332
100.372786315766
100.37276904238
100.372791922598
100.372701466071
100.372799722095
100.372820707805
100.37299231927
100.37289173155
100.372813159474
100.372595096686
100.37263858059
100.372576903247
100.37277769655
100.372696860293
100.372705056714
100.372660046425
100.372707306827
100.372684190685
100.372716285548
100.372677283514
100.372730297694
100.372690781726
100.372646387483
100.372496141803
100.372088857656
100.372483012426
100.372656204722
100.37266437973
100.372683696702
100.372676413555
100.372636966839
100.372670058306
100.372679675131
100.372653738604
100.372695694746
100.37264460242
100.372598605367
100.372533031733
100.37238680017
100.372571920734
100.372432494466
100.372583119655
100.372644217072
100.3726054436
100.372637194615
100.37264810017
100.372635308242
100.372634651605
100.372643071627
100.372611400036
100.372594063748
100.372414642133
100.37183931144
100.37243789645
100.37257921941
100.37258812953
100.372605722152
100.372603054859
100.372601016819
100.37260603702
100.372578806438
100.372518029259
100.372536429572
100.372412575773
100.372429284117
100.372528046096
100.372545167877
100.372550742187