/*--------------------------------*- C++ -*----------------------------------*\
| =========                 |                                                 |
| \\      /  F ield         | OpenFOAM: The Open Source CFD Toolbox           |
|  \\    /   O peration     | Version:  v1612+                                |
|   \\  /    A nd           | Web:      www.OpenFOAM.com                      |
|    \\/     M anipulation  |                                                 |
\*---------------------------------------------------------------------------*/
FoamFile
{
    version     2.0;
    format      ascii;
    class       volScalarField;
    location    "1.9";
    object      p;
}
// * * * * * * * * * * * * * * * * * * * * * * * * * * * * * * * * * * * * * //

dimensions      [0 2 -2 0 0 0 0];

internalField   nonuniform List<scalar> 
80571
(
100.261147290217
100.260730932988
100.2601900468
100.263080258096
100.267539430324
100.267566697835
100.267963206138
100.268661146096
100.266488478934
100.266542974086
100.266733940789
100.266616343278
100.266725780411
100.26690138923
100.266652725316
100.266506159262
100.268669254689
100.267942701631
100.267542934645
100.267517877259
100.268224519169
100.268769828768
100.266492125091
100.266805175932
100.267064517691
100.266376417193
100.266376294477
100.267064409075
100.266804808676
100.266491805152
100.268773103562
100.268226675802
100.267518170531
100.267541974872
100.267940376494
100.268665673299
100.266505864811
100.266652159367
100.266898498222
100.266724797287
100.266615792571
100.266733238957
100.266544231739
100.266489129015
100.268658496949
100.267961046153
100.26756557166
100.26753991159
100.268250451601
100.26880067641
100.266512340195
100.266827021861
100.267090244821
100.266402620292
100.266403163787
100.267091629453
100.266828207572
100.266512855615
100.268798044286
100.26824858928
100.263495375071
100.263766327504
100.263120207736
100.262826426706
100.263188441371
100.263462532655
100.263462380972
100.263187673626
100.262824664699
100.263119074186
100.26376631804
100.263494383279
100.263079879387
100.263459897901
100.264177830235
100.26457565205
100.264627045723
100.264755232514
100.264379162917
100.264751464851
100.264813666097
100.264405926582
100.264715518291
100.264609827152
100.264571837747
100.2641631082
100.26345627948
100.26305982468
100.263475640384
100.263742830777
100.263095409091
100.262800476588
100.263162047332
100.263436889488
100.263437198957
100.263162948142
100.262801364013
100.263096379531
100.263743923109
100.263477326428
100.263060295718
100.263457397789
100.264164130505
100.264573662387
100.26461063163
100.264714015038
100.26440582811
100.264813292861
100.264751014811
100.264379540927
100.264754173364
100.264627845981
100.264577704771
100.264178774559
100.263460686567
100.260690434917
100.261716777649
100.260040132178
100.260686266531
100.26100461184
100.260745175939
100.261300940187
100.259407312581
100.259381350954
100.260402471673
100.260402502201
100.259379649863
100.259404229467
100.261299290019
100.260747000254
100.260821296961
100.260189455914
100.260688287055
100.261715284899
100.261880948624
100.263118922349
100.263329338989
100.262218246321
100.262118165655
100.262067437708
100.262123172181
100.263243488656
100.263075067428
100.261862811508
100.261699589468
100.260676351643
100.260174498685
100.260798933593
100.260720471947
100.261273659417
100.259379070727
100.259354037481
100.260376788396
100.260377050363
100.259354741669
100.259380249899
100.261274850304
100.260720954296
100.260800798065
100.260174954759
100.260678476307
100.261700860015
100.261865967797
100.263076368845
100.263238152569
100.262120319435
100.262066923932
100.262117852869
100.26221448051
100.263323254441
100.26311997836
100.261885905937
100.260027226406
100.251972011745
100.25230703027
100.252362812272
100.252557328665
100.252822458488
100.261704611996
100.260377714526
100.260545027978
100.2605441999
100.260374818813
100.261705533205
100.261004118509
100.260678917177
100.26072863598
100.260039120448
100.260018562399
100.260136774028
100.264524395714
100.26178085508
100.261709537114
100.264434745755
100.260126934456
100.260009577027
100.260036484201
100.260635844676
100.260711828367
100.261131279785
100.261976972806
100.262719095467
100.262588562399
100.26312652119
100.265369805479
100.265401536333
100.263991231219
100.262598121509
100.261610720815
100.260998260683
100.260713476442
100.260713657902
100.260998772296
100.261611458991
100.262598987256
100.263992317549
100.265842255664
100.266067530714
100.264561489828
100.262911325964
100.261696867152
100.26085626582
100.260352512192
100.260103989056
100.260103810122
100.260351973991
100.26085545446
100.261695863339
100.262910216339
100.264560530054
100.266065647206
100.26584051549
100.263897072434
100.264203721814
100.264021633737
100.263560344798
100.263333932469
100.262762033158
100.263543240667
100.263277675113
100.261769652593
100.258702649021
100.253377906019
100.251962351602
100.252279484446
100.252342484966
100.252532350904
100.25278917381
100.25278968405
100.252533738355
100.252344346818
100.2522828129
100.251966418307
100.252039010748
100.252032058343
100.250863715709
100.2507344244
100.250813226006
100.250678263762
100.250748686839
100.25081125355
100.250810404757
100.25282224939
100.252555694064
100.252360434103
100.252303502266
100.251967519068
100.252025534835
100.252032972104
100.250852338272
100.250706560166
100.250773117232
100.250646460542
100.250709021835
100.250765486991
100.25076625056
100.250711306154
100.250648829373
100.250777520764
100.250710497561
100.250858308711
100.251302876659
100.251317314329
100.251208570275
100.251255199605
100.251140953889
100.251182729943
100.251179771884
100.251178793056
100.251178109516
100.250746063232
100.250675523077
100.250808389211
100.250730257741
100.250857654393
100.25130794051
100.25129368533
100.251162519691
100.251196384708
100.251072237094
100.251105841793
100.251102568988
100.251103455733
100.251109447968
100.251076781967
100.251203530797
100.251170525383
100.250915168712
100.250979833747
100.250999790371
100.250969318195
100.251048312076
100.250998948157
100.251019698878
100.251008553388
100.251006564567
100.251012550314
100.250989901347
100.251135510701
100.251246876687
100.251200160462
100.250955318709
100.250984903238
100.250965303623
100.250901922958
100.250960940113
100.250889474558
100.250899052916
100.250883435922
100.250885303543
100.25090423551
100.250896625497
100.250971521751
100.249934191312
100.249891412393
100.249960689153
100.249991238673
100.249976951351
100.25005623357
100.250041108871
100.250060681456
100.250070987686
100.250067385567
100.250049843052
100.250026111446
100.250035416425
100.251035397881
100.251197790311
100.25014655896
100.249954983441
100.24996753053
100.249937464824
100.249870021497
100.249918854775
100.249866510283
100.249868551126
100.249873833622
100.249876890283
100.249875612833
100.249879623381
100.248617608626
100.248673195176
100.248662914071
100.248772704103
100.24882041956
100.248801677232
100.248873238146
100.248868608622
100.248879237542
100.248911369582
100.248905557884
100.248861102811
100.248844596583
100.248841293466
100.248765510646
100.248781878693
100.248735213922
100.2486289532
100.248650143146
100.248596384305
100.248577221536
100.248599066607
100.248604066603
100.248588942267
100.247175182456
100.247259143038
100.247336831547
100.247330994701
100.247511428739
100.247582910186
100.247556829496
100.247656168995
100.247656659375
100.247629493192
100.247694609893
100.247685868154
100.247599612391
100.247617144691
100.247605704229
100.247498856923
100.247520394017
100.247450321897
100.247277771405
100.247298136623
100.247228259224
100.247154629802
100.247198758799
100.247206314726
100.245457666605
100.24535063808
100.245543383964
100.245660007103
100.245609256159
100.245948289738
100.246056379508
100.245980380268
100.246165297918
100.246169195938
100.246050184637
100.246210462371
100.246198215911
100.246002421664
100.246103031881
100.246085253456
100.245889664523
100.245957052819
100.245850809806
100.24552797414
100.2455954791
100.245496350014
100.245314683702
100.245447131516
100.242899556063
100.242910540219
100.242561426864
100.242974622012
100.243159617
100.242992496748
100.243688411763
100.243859092004
100.243589658342
100.24393781586
100.243947178051
100.243628576674
100.244056080894
100.24403417815
100.243555108555
100.243844037341
100.243813818145
100.243445229393
100.243707044865
100.243537022718
100.242871220573
100.24305025463
100.242905937683
100.242503170002
100.237183313333
100.238391741565
100.238401564546
100.237252627253
100.238301315149
100.238535849124
100.23807691561
100.239705379963
100.239996889766
100.239002415486
100.239819554006
100.239831954307
100.238993314903
100.240200115573
100.240163959231
100.23887701942
100.239666663256
100.239625501264
100.238763321877
100.2397531947
100.239451829628
100.237837282951
100.23838473385
100.238189795543
100.231094756227
100.228934940272
100.231774716671
100.231784523531
100.229001618659
100.231248982973
100.23159872146
100.230494732337
100.233930692465
100.234408040524
100.231939561551
100.233725638981
100.233711228905
100.231755742567
100.234497836949
100.234438325225
100.23158097179
100.233446903311
100.233410138256
100.231545067346
100.234033344338
100.233499923476
100.230047785382
100.23138671179
100.239804134616
100.23941315569
100.237327922365
100.239618292462
100.239636414442
100.237403690533
100.239617292351
100.240049490796
100.2391303831
100.242445529244
100.243729004638
100.242002584912
100.243377070485
100.243284278108
100.241302335407
100.243402028677
100.243306169516
100.241048701706
100.242876500743
100.242899930303
100.241426138253
100.243236547987
100.242219022163
100.239027835528
100.275432187667
100.269491448135
100.269206704966
100.273548229105
100.269453373289
100.269540601147
100.273780278479
100.269494218987
100.269844223874
100.275919674395
100.273226667709
100.275007236095
100.280200023883
100.27421688055
100.27428972312
100.278906084514
100.274198624547
100.274064787207
100.278490394612
100.27375520372
100.273554790301
100.279360865083
100.274330260558
100.272686034048
100.310932611901
100.326846912861
100.314637384157
100.3236688452
100.306395370998
100.322234878675
100.311867658245
100.32340749141
100.306138502589
100.306269043732
100.323641559385
100.312187798592
100.322570098726
100.324140753681
100.315300579857
100.327596746626
100.346059009239
100.348317903021
100.332011748546
100.314363913546
100.311728421074
100.358830268577
100.387860765512
100.375941336437
100.379485696713
100.390550468642
100.378702828547
100.366538009492
100.321269452788
100.331948727917
100.329363219068
100.313030171429
100.367748964794
100.389137687322
100.371345358094
100.368857769605
100.374297227147
100.38145605918
100.360413964221
100.317821887929
100.329023545193
100.34434276166
100.311421525667
100.311243032382
100.328689079111
100.317298834329
100.328533095699
100.312210686867
100.330833093835
100.320191061925
100.33095072217
100.313401144234
100.347361441093
100.345280365741
100.375227411558
100.381349424355
100.358346211435
100.370071191527
100.362268854272
100.361766080842
100.368165661766
100.354755223834
100.377585431411
100.368273389591
100.36836951636
100.377782056898
100.368405467645
100.36205715853
100.362648507348
100.370520019481
100.381881013496
100.398637444835
100.402521080611
100.409127957382
100.410007640172
100.407682387742
100.400234360187
100.396030083949
100.410970303313
100.415679261698
100.414566248768
100.415287406902
100.415715077113
100.415316490156
100.416327168346
100.407142852871
100.411160610168
100.406715208052
100.398531324838
100.417842817353
100.416443250172
100.41697338317
100.412902421713
100.413016038054
100.411413100609
100.402890615547
100.394287203105
100.406267078481
100.412152957308
100.413370468554
100.415809396469
100.416215474588
100.416072019095
100.416524308165
100.416700621708
100.416636681012
100.416591142116
100.416605557209
100.416706404669
100.416580880865
100.41621890761
100.415918395377
100.415962946639
100.416231746997
100.416508417563
100.416785129675
100.416844975214
100.417406811992
100.418319402323
100.422264554274
100.428636133485
100.444809855501
100.439493903023
100.395699960776
100.354541674545
100.310562000748
100.286739953038
100.301432709713
100.302075486645
100.300014266396
100.299828109816
100.300732161699
100.301792602889
100.302920927431
100.304251274744
100.305730198515
100.307151082549
100.308308283329
100.309090713539
100.309456950031
100.308804927536
100.307988737431
100.307013176818
100.305832111851
100.304348608097
100.302585487992
100.300751745524
100.299089971416
100.297775918503
100.296819581601
100.296179615061
100.295739026478
100.2954127836
100.295149187844
100.294933436425
100.294797912115
100.294809823526
100.295079560441
100.295688422844
100.296787272847
100.298442159322
100.300208418536
100.300955763116
100.301099150178
100.301089296466
100.301116160042
100.301109876577
100.301119606811
100.301153362549
100.301117739284
100.301096720077
100.301031101585
100.300879064542
100.300682838632
100.300728027751
100.300823312601
100.301006594842
100.301001258293
100.30091501752
100.30103875683
100.301097532857
100.301123113155
100.301114628902
100.301160613799
100.301170846407
100.301106593824
100.301132588843
100.301124233068
100.301099369891
100.301108543803
100.300949493978
100.300622717476
100.301057609212
100.301124167496
100.301112730698
100.301138759521
100.301117890071
100.301172628312
100.301128514024
100.301121399504
100.301104095677
100.301055942485
100.301099958211
100.301006007476
100.301084802196
100.301187664182
100.301187931968
100.301186082991
100.301116590528
100.301128248905
100.301145388842
100.301178035535
100.301137339128
100.301158929231
100.301134686399
100.301153780607
100.301032171123
100.300917094188
100.301180499425
100.301189884133
100.301172855262
100.301182751465
100.30116366934
100.301185650978
100.301176735912
100.301168105134
100.301182407361
100.301190969129
100.301254473079
100.301270162272
100.301220868942
100.301136058708
100.300965498236
100.301205177263
100.301256998633
100.30141030763
100.301543350805
100.301500721232
100.301333697227
100.30132564514
100.301303213031
100.301215951224
100.301243935211
100.301219224188
100.301191240052
100.301200990148
100.30120249687
100.301221233688
100.301193158513
100.301231895764
100.30096702745
100.300643941794
100.301108469779
100.30122521672
100.301230851127
100.301243844097
100.301254704134
100.301242276596
100.301256232528
100.301275914487
100.301291493052
100.301311401636
100.301264071722
100.301363449943
100.301408971699
100.301555916452
100.301523248396
100.301582494676
100.30152914841
100.301487825555
100.301392423864
100.301393241956
100.301344446382
100.301344808636
100.301302456214
100.301262483266
100.301291623137
100.301297061294
100.301271007722
100.301289954986
100.301083423365
100.301070516366
100.301283505935
100.301346486489
100.301325623188
100.301339194336
100.301330667334
100.301376731745
100.301406255848
100.301427316566
100.301437582796
100.301588562438
100.301689091255
100.301764568288
100.301791483518
100.301676344317
100.301862719337
100.301877871141
100.302001817073
100.302096378012
100.302027205685
100.301891392327
100.30175323283
100.301629750597
100.301466941191
100.301468434503
100.301498692441
100.301443202471
100.301490680455
100.301405073257
100.30137994006
100.301415109397
100.301253531661
100.301350962031
100.301466262563
100.301484111918
100.301434523243
100.301498983352
100.301501841077
100.30152217713
100.301491842435
100.301552622562
100.301529102258
100.301713585285
100.301856537285
100.302031200347
100.302060480782
100.302075444751
100.301906472622
100.301858279641
100.301664314099
100.301625096822
100.301548031504
100.301562376797
100.30153722047
100.301558291058
100.301577499126
100.301535911531
100.301501927045
100.30157131148
100.301308559193
100.301429415347
100.30153182001
100.301603509973
100.301562532118
100.301597732032
100.301615218339
100.301658922861
100.301621336957
100.301690696651
100.301647992295
100.30172137521
100.302014248758
100.302206189689
100.302326262662
100.302328970298
100.302421692175
100.302498257295
100.302440713295
100.302273141166
100.302073562966
100.301829055641
100.301785387059
100.301674658732
100.301667355704
100.301719625252
100.301646231844
100.30166950995
100.301726997949
100.301661977984
100.301718151064
100.301658733773
100.301474061433
100.301676004029
100.301671775213
100.301703205794
100.301765053327
100.301726032324
100.301852326583
100.301770078377
100.301871011012
100.301841204069
100.301894966008
100.302019035324
100.302234550084
100.302437302588
100.302458935249
100.302426269376
100.302241011329
100.302313383138
100.302518815023
100.302670791852
100.302602475358
100.30272437266
100.302611842733
100.302631926144
100.302623476156
100.302419282239
100.302173672151
100.302003033879
100.301938377619
100.301844009676
100.301824913894
100.301873293972
100.301811090042
100.301823122943
100.301834228164
100.301809198748
100.301775149102
100.301812276343
100.301800326288
100.301482857211
100.301829740283
100.301724131106
100.301650923607
100.301862011808
100.301821250028
100.30185978262
100.30189491418
100.301862839128
100.301921095942
100.301911030122
100.302065161381
100.302177607028
100.302207667452
100.302502109188
100.302716989659
100.302909078529
100.302842114297
100.302978571435
100.30290820576
100.302913515266
100.302884004827
100.302642166129
100.302368157911
100.302252913615
100.302071441495
100.302049445394
100.302067720536
100.30195347803
100.302014712371
100.301922179011
100.301882166978
100.301929046891
100.301852368139
100.301855018285
100.301946132517
100.301571844145
100.300785297468
100.30152332633
100.30092960783
100.300070545614
100.300992899177
100.300340700041
100.299509311833
100.298543788204
100.2999568566
100.299241303778
100.297559100331
100.296171884267
100.295287485533
100.294835005201
100.294702366349
100.294757386678
100.294926386484
100.295167513439
100.295481916953
100.295905229697
100.296511863876
100.297400939721
100.29861389985
100.300154670154
100.30186758285
100.303540262415
100.30498953866
100.306170848279
100.307157578838
100.307997291234
100.308682413236
100.309232474109
100.309971659402
100.31049903013
100.310012498344
100.309382165778
100.308575953338
100.307586661946
100.306377522312
100.304860544077
100.303053968383
100.301173988946
100.299451568348
100.298067387272
100.29705250871
100.296380307402
100.295925758254
100.295600193338
100.295340558678
100.295116726726
100.294948246436
100.2948914366
100.295041010295
100.295469351352
100.296303512601
100.29773649818
100.299556392023
100.30080039686
100.301122569449
100.301103717513
100.301123965289
100.301139347028
100.301130885421
100.301161398791
100.30113113828
100.301125750217
100.301046964365
100.300863491364
100.300594466057
100.300652551268
100.300325581943
100.299857779327
100.299148674914
100.299380924286
100.299668382667
100.300169945858
100.300159505444
100.299954239224
100.30038717345
100.3004818948
100.300628592765
100.300322706023
100.300554291765
100.300735019789
100.300378797074
100.299931333137
100.300331044741
100.300591792091
100.300913385839
100.301299026343
100.301199663534
100.300964299449
100.300676097571
100.300621789759
100.300781196839
100.300983771168
100.301026097753
100.30110573922
100.301045261714
100.301211613414
100.301168510468
100.301149070126
100.301101361304
100.301072206352
100.301054103173
100.301054482464
100.301069660528
100.301089453351
100.30111577787
100.30112201664
100.301124573346
100.301152772013
100.30112358652
100.301107957929
100.301033747957
100.300873284699
100.300794281049
100.300961281876
100.301096934398
100.301119042579
100.301156988116
100.301159290935
100.301184497566
100.301133612572
100.301200319555
100.30115375488
100.301161912032
100.30108678226
100.300920989265
100.300619039449
100.300218330441
100.300534881154
100.30023445755
100.299782544251
100.29900783852
100.298013226819
100.296908924264
100.295297350492
100.296708549035
100.297085220331
100.297631408274
100.298177256935
100.298596854297
100.298954533411
100.299646774486
100.299676351737
100.299424961663
100.298934820165
100.298499335424
100.29812241918
100.297882096335
100.298760735171
100.299276395243
100.299912157499
100.300142740128
100.300737325706
100.300986758769
100.301131036616
100.301140279107
100.301086017997
100.301099807817
100.301114167714
100.301133813999
100.301169352111
100.30122349141
100.301156479723
100.301269864316
100.301230915612
100.301277397869
100.301211521317
100.301073450928
100.300771817633
100.300365197567
100.299703422573
100.298955277708
100.298915126138
100.297862470768
100.296689305571
100.294928189295
100.292882121115
100.290096603296
100.291072845893
100.292390014481
100.293487856191
100.294436098237
100.295822275443
100.295947374954
100.295216561327
100.294551240375
100.293518019342
100.293069703664
100.294909142049
100.296222185699
100.296589662499
100.297904520831
100.299448551022
100.300198409026
100.300535965491
100.300688696908
100.301118625873
100.301126415551
100.301158033071
100.301174329099
100.301195870349
100.30125668871
100.301174420173
100.301334273111
100.301302507746
100.301367748905
100.301319469513
100.301182674629
100.300869098523
100.300476089147
100.299725226149
100.299001919064
100.297832807982
100.296695671828
100.294637895562
100.294685580655
100.292405168831
100.289285891907
100.285360699017
100.280217910116
100.260594398107
100.270625619686
100.281393623948
100.282476840346
100.286715432961
100.288039323687
100.283202388711
100.286918695912
100.289308215667
100.291148940026
100.292803430294
100.293791716874
100.294979481635
100.295056372495
100.294263727274
100.292772513705
100.291335602477
100.289874404917
100.289622125644
100.292018832607
100.29410403745
100.295059589859
100.297012632054
100.298197928805
100.300107742085
100.300603837682
100.300746882118
100.300852874443
100.301099402294
100.301064463944
100.301056486853
100.301035351217
100.301020934476
100.301006805502
100.30112186568
100.301179961555
100.301177074344
100.301193334041
100.301254394094
100.301171767142
100.30133350458
100.301303475206
100.301372931925
100.301324604349
100.301206232701
100.300861636717
100.300513852548
100.29970204692
100.299004606834
100.297829958369
100.296677895886
100.294615363578
100.292139703708
100.2889148907
100.28887001678
100.284432991258
100.279091434293
100.254619246512
100.225831272772
100.16538019106
100.183608897086
100.189473089007
100.193132166695
100.192661891581
100.199361445181
100.196691198511
100.193087764928
100.198473774858
100.203026016058
100.20109611658
100.196671619036
100.205330311157
100.20090550806
100.201307757729
100.208561003807
100.202127348638
100.201128552472
100.209101589771
100.204691800328
100.19822322942
100.207318057422
100.203936300963
100.196913617169
100.205595592023
100.202494803817
100.194966134037
100.205658648367
100.207043386487
100.204502086211
100.203792404925
100.201832745282
100.200326316694
100.199854990548
100.199985010175
100.199933367474
100.20030608383
100.200597028671
100.200608735199
100.200264897178
100.200485969793
100.200644256075
100.200719772954
100.200513897754
100.200365813101
100.200766436438
100.200464605858
100.200315982702
100.200254082179
100.200497310501
100.200597552588
100.199885532595
100.19989157203
100.20055732634
100.200466545161
100.200216695041
100.200328068253
100.200469285608
100.200772101078
100.200364326088
100.200513845102
100.200720273018
100.200645051408
100.200487026262
100.200266877119
100.200610141728
100.200599587199
100.200308136128
100.19993363108
100.199982065476
100.199854855093
100.200330220405
100.201299031635
100.202313686052
100.202328607743
100.201291093499
100.201771118896
100.20269694162
100.202714137186
100.201788278309
100.201844267991
100.201685601056
100.201275759939
100.201873326932
100.202071823388
100.200737274195
100.201240816024
100.200982394468
100.201150259529
100.201599340297
100.2006890178
100.201333894914
100.201869719093
100.201991079067
100.202581718663
100.200744973713
100.201725818052
100.201128750835
100.201033766966
100.20059800738
100.201173995252
100.203004160236
100.201658776203
100.200361129492
100.201592447929
100.201577888834
100.200341340787
100.201156937654
100.200595643093
100.201025893602
100.201135565406
100.201724418495
100.200739659408
100.202581488343
100.201983991804
100.201861570002
100.201329528138
100.200682691094
100.201596041011
100.201147746885
100.200978026811
100.20123763689
100.200730734189
100.202072654718
100.201874587904
100.201275935632
100.201679174678
100.203657420823
100.203108738511
100.203933677804
100.201483518922
100.200076202601
100.20391154018
100.203118961172
100.202551532969
100.203208760427
100.201987694282
100.202870919744
100.200222922241
100.205919407759
100.205176984371
100.205513363745
100.202005784357
100.201174417549
100.201166460181
100.201999736444
100.203790531293
100.20366785991
100.20311688815
100.203216596552
100.202558472405
100.203119441224
100.202960868497
100.20106774835
100.202001601814
100.203170758478
100.204175529389
100.202372650089
100.202696082274
100.203498053531
100.204497280497
100.202049434102
100.20148741832
100.202005961086
100.202085477696
100.202080872591
100.201558190619
100.201860806989
100.202622264461
100.202617769075
100.201847388035
100.201543017094
100.20207653392
100.202004240015
100.202042281143
100.204504991769
100.203491490953
100.202690042958
100.202360942694
100.204186577858
100.203186383955
100.202009136971
100.201066033186
100.202975188798
100.202183033587
100.200977373399
100.201713517541
100.201533352864
100.202501585197
100.200964432273
100.200581080575
100.202815940681
100.203126163962
100.203247274727
100.202939794814
100.203975741343
100.202173901174
100.201746369983
100.203974379514
100.205015112019
100.205009296853
100.203943537926
100.204767341233
100.201343289192
100.202435252811
100.204462613727
100.203695150674
100.205307266135
100.204498184028
100.205447893151
100.204614356897
100.201209897998
100.202067217119
100.201446302177
100.199519364859
100.193163244855
100.193775083608
100.187878751957
100.191404121561
100.17868514967
100.172997816474
100.176853858945
100.182435550348
100.163023338636
100.236122698661
100.258393881849
100.222385266856
100.250680138008
100.270024824687
100.278047374896
100.283700150664
100.283619314003
100.27873035628
100.271789147322
100.279581574871
100.283608860786
100.286412280235
100.288715956696
100.286825521035
100.28994916777
100.291526281997
100.292965347284
100.293953815506
100.293838055942
100.292341877737
100.290965984161
100.290682987233
100.29209629704
100.293376807956
100.294080133369
100.294951875781
100.293108054379
100.294573444657
100.293361745981
100.292597243112
100.292337947351
100.292185480092
100.292668279409
100.291819636609
100.291787434719
100.292142752084
100.292873144251
100.291049466848
100.293812795576
100.294225547305
100.294800495316
100.295657781836
100.297388967026
100.296663556903
100.295693649835
100.294941048087
100.294026891638
100.293112216986
100.292312997849
100.291202011005
100.293361964679
100.292342738296
100.291975556264
100.292423612887
100.291857179724
100.292576102405
100.291949794801
100.295348156743
100.29613940927
100.296941543423
100.29679575479
100.296577567174
100.296767299247
100.298614677194
100.300558828111
100.299288352742
100.298604120986
100.299138610438
100.294970085035
100.294461058714
100.295601811114
100.297351568589
100.296545393903
100.299176507016
100.29725279192
100.29763624969
100.29812473381
100.297464017452
100.296756270609
100.296051233645
100.295851858859
100.296300304852
100.295512431741
100.294496033588
100.293535517513
100.29254794578
100.29284405188
100.291788004897
100.290790865513
100.291794077339
100.290485631247
100.290759922225
100.291009533171
100.292033840113
100.293726285799
100.293579860249
100.292247706856
100.292930061706
100.29229753797
100.294775926694
100.294000661425
100.293761087079
100.294164768109
100.29513926742
100.297154162017
100.294918038349
100.296805841163
100.298107070725
100.300217897155
100.30081160282
100.301666256363
100.300686284279
100.300110332701
100.30008114524
100.30150694692
100.301030968373
100.299977104997
100.300087229982
100.297812219788
100.299273687075
100.298107119038
100.297142269474
100.298674969774
100.298034279506
100.298427205866
100.297984776889
100.298093484688
100.297749632338
100.299721514308
100.300253665891
100.301166870078
100.301669037592
100.30176704492
100.301823328309
100.30158914371
100.301613653633
100.301093672062
100.300717836378
100.300092518193
100.299172288742
100.298110807999
100.296902535439
100.296049903612
100.295570047709
100.295463010758
100.296107483378
100.297364578767
100.299100228903
100.300611830154
100.30054727683
100.300545198368
100.301119931142
100.30111859846
100.301148844307
100.301165145114
100.301216584493
100.301150536653
100.301269988221
100.301231113748
100.301284182416
100.301217251327
100.301099024944
100.300764541594
100.300411802799
100.299678626955
100.298951214251
100.297771701863
100.296612439398
100.294644992312
100.292364121079
100.289320558709
100.285448416722
100.280458560435
100.260919751098
100.254935779616
100.226123025898
100.164963182374
100.183445933186
100.189366039557
100.193051302451
100.192619732232
100.199198823199
100.201028286817
100.196683327118
100.205413162298
100.20088846441
100.201322938219
100.208533474316
100.202141779243
100.201138789377
100.209090820759
100.204696686389
100.198249270827
100.20729268756
100.203948309722
100.196921107859
100.205592889339
100.202508061619
100.194969548161
100.205912794077
100.20516177895
100.205563966207
100.205644320489
100.204528950559
100.207076030094
100.201474877492
100.203939152814
100.20193484974
100.203910836612
100.200076802788
100.200979934132
100.202178150851
100.203263954631
100.203961780515
100.203128763414
100.202434749824
100.201099987221
100.201429202207