/*--------------------------------*- C++ -*----------------------------------*\
| =========                 |                                                 |
| \\      /  F ield         | OpenFOAM: The Open Source CFD Toolbox           |
|  \\    /   O peration     | Version:  v1612+                                |
|   \\  /    A nd           | Web:      www.OpenFOAM.com                      |
|    \\/     M anipulation  |                                                 |
\*---------------------------------------------------------------------------*/
FoamFile
{
    version     2.0;
    format      ascii;
    class       volScalarField;
    location    "0.5";
    object      p;
}
// * * * * * * * * * * * * * * * * * * * * * * * * * * * * * * * * * * * * * //

dimensions      [0 2 -2 0 0 0 0];

internalField   nonuniform List<scalar> 
74874
(
100.128553033417
100.130937216992
100.131410588123
100.130000377066
100.135515574111
100.136101964255
100.132944102234
100.134552433259
100.1370694568
100.137143108084
100.135030639813
100.133494540595
100.13677822246
100.1362282055
100.137239580905
100.137422986793
100.136804358218
100.13366564755
100.130756641555
100.13018706117
100.13166147653
100.132978624317
100.131460083068
100.131110431316
100.136551669365
100.136687587944
100.1320868995
100.132352523006
100.133515269769
100.131693954184
100.13183146164
100.133329637272
100.132334428059
100.132034261458
100.136620476735
100.136122659501
100.131020595152
100.131436777645
100.132878797467
100.131299513188
100.129868456388
100.13039391058
100.133300432954
100.136446801568
100.136894337524
100.136652209459
100.130509156502
100.129768796564
100.129374744486
100.128808622046
100.127795863011
100.127801173281
100.12708623277
100.127433894041
100.1277008689
100.12825765575
100.129458406412
100.128946884757
100.12733927311
100.12705195296
100.126784893889
100.126331792589
100.1263761477
100.126914032473
100.127075025811
100.127410709169
100.128963696331
100.129497421308
100.128373213538
100.127856348351
100.127724316245
100.127386718628
100.12804843454
100.128058391334
100.129046688891
100.129663440747
100.130140618646
100.130919019776
100.130463190373
100.132033515787
100.131641992641
100.132784567432
100.133043938485
100.132828805673
100.132261664327
100.131780431959
100.131283636817
100.128127507829
100.12645248411
100.128483413616
100.12744479956
100.123752825978
100.124701773198
100.127313730761
100.127011323233
100.125267871383
100.123509520138
100.125091847382
100.126654554663
100.126005085334
100.125329052606
100.124913022653
100.123092920889
100.122028147174
100.12322484758
100.123169281042
100.121907728724
100.123045985405
100.125025835384
100.125508688399
100.125855152554
100.126863380164
100.125636339811
100.123989666269
100.125632489877
100.127271489032
100.127548280857
100.124877807724
100.123970296936
100.127853918797
100.128907755899
100.126968360847
100.128947518707
100.13250937802
100.132732905102
100.130321644416
100.130085546871
100.123666406579
100.131816866672
100.131410212087
100.125979714197
100.123505572738
100.128143465863
100.128516067822
100.122845228301
100.123079096786
100.125978464221
100.124385131527
100.12321257191
100.121216993965
100.124103770787
100.126679593102
100.122918988175
100.122362113617
100.124600973782
100.120975995263
100.11862818229
100.12081265106
100.120777820528
100.118566327225
100.120948390315
100.124712189969
100.122734451118
100.123582675071
100.127644608741
100.125087276052
100.121795307488
100.123628583927
100.124689283127
100.126263956022
100.123288783184
100.123007898669
100.129091308852
100.128614057795
100.12420626631
100.127236532584
100.134027805494
100.134906072066
100.124601838448
100.151737373826
100.149695376396
100.122275987487
100.122139133073
100.127466602023
100.117007651377
100.118541179604
100.129593676914
100.125967007346
100.123114600196
100.12304475024
100.12795074129
100.117524341377
100.118669448101
100.118927391942
100.118679622149
100.125503259433
100.121767545409
100.121731857173
100.125365696769
100.11880819119
100.119076527398
100.118845244272
100.117437075396
100.115887871633
100.118829065569
100.11658582202
100.107947167006
100.110550067544
100.082324088252
100.078435933673
100.078799412487
100.084569069783
100.115795518573
100.110112985129
100.093069356995
100.086079576955
100.079758865354
100.080513192744
100.08548958694
100.08247215205
100.083437894228
100.086734886663
100.08672224156
100.083389346832
100.082455592547
100.085125481033
100.084306029446
100.078101244125
100.076830711458
100.081359455342
100.079402018483
100.07923313913
100.078232900748
100.078258336468
100.084483479791
100.083688828184
100.084004303459
100.084389880081
100.079655765137
100.080228760692
100.081576684275
100.081552164722
100.080210509461
100.079445593824
100.080436687546
100.079662273136
100.078181094103
100.078213864007
100.085009334216
100.084071689881
100.083733826264
100.084501672924
100.085780062994
100.085723416468
100.085104568026
100.085283319747
100.085537128328
100.08556987497
100.084662869542
100.084380715597
100.084371823247
100.084553486131
100.084193914865
100.08396428232
100.083621969075
100.084546019536
100.08565623167
100.085966127061
100.085221819941
100.085116951654
100.083391495149
100.083679870133
100.083660740752
100.083455159078
100.083608961921
100.083608340114
100.083637539954
100.083501037862
100.08521856366
100.085192095995
100.085435179798
100.085356808419
100.085191671949
100.085030935797
100.083326149795
100.083511643754
100.083652573703
100.08336777603
100.081045643064
100.081097399276
100.081210235566
100.081238373896
100.081153175216
100.081270243592
100.08122052839
100.081270186
100.081221747674
100.081207351483
100.083480869674
100.083553732542
100.083483677481
100.08348723534
100.081162409128
100.081011681167
100.081092701711
100.081107609614
100.079107520352
100.079096037488
100.07914827078
100.079207528478
100.079266775255
100.079191832119
100.079278715335
100.079247203831
100.07929577165
100.079260662905
100.079248735373
100.079269771443
100.08123155339
100.08113633225
100.079181196521
100.079198458631
100.07908711581
100.079158774547
100.077423439298
100.077382361245
100.07733087115
100.077362755976
100.077406107303
100.077484488542
100.077427975103
100.077508723119
100.077487441359
100.077535528437
100.077516588879
100.077511890945
100.077521529774
100.07743645056
100.0774511714
100.077372350024
100.075569315646
100.075571863873
100.075529801764
100.075429261081
100.075447306172
100.075493121333
100.075596923701
100.075567416597
100.075659294352
100.075639079651
100.075708627374
100.075721532318
100.075727263977
100.075723133184
100.075624158617
100.075635953748
100.073555797755
100.073479388422
100.073448052489
100.073396757868
100.0731508929
100.073163143953
100.073311287355
100.073422398877
100.073401879428
100.073521197071
100.073522412831
100.073627276154
100.073680407648
100.073734434841
100.073718820295
100.073601393926
100.071032196515
100.070950111501
100.070836233307
100.070811289647
100.070751234672
100.070156179407
100.070122535595
100.07055077042
100.070653886932
100.070668322779
100.070821567542
100.070891019062
100.071083340922
100.071146523716
100.071224981119
100.07116479283
100.067343845747
100.067125540318
100.067142186738
100.066938094705
100.066744910447
100.066946671632
100.065712696453
100.065570124746
100.066500676705
100.06638236665
100.066544334071
100.066812267964
100.066855804911
100.067220213271
100.06740032356
100.067457014595
100.061397074821
100.061244141116
100.060730357441
100.061000781337
100.060873067087
100.059992123472
100.060878635932
100.058357504737
100.058233934627
100.06019581282
100.059300443522
100.060018148456
100.060290089065
100.060289143506
100.060830497717
100.061218899163
100.038915892493
100.039126443115
100.035857321754
100.035531975644
100.039175937486
100.039762768053
100.035005970806
100.035479222908
100.03539785396
100.035307026539
100.034857756533
100.033758801319
100.038600748491
100.038267384517
100.035017256281
100.035455880629
100.041285546612
100.044080820393
100.044156401865
100.042005930319
100.041783200656
100.043426212434
100.045654412089
100.039448917646
100.026280404607
100.068661134061
100.10430717342
100.103984983411
100.067523350769
100.034722721952
100.034936466201
100.173556627259
100.298074201607
100.223534539839
100.22156817285
100.174758695263
100.159395841936
100.144781980812
100.038449809001
100.044988601814
100.043181248231
100.041201256819
100.150574710081
100.151231852717
100.190018836601
100.12895928612
100.129690907296
100.191371458293
100.152475456994
100.151283682462
100.187657732958
100.124614336984
100.122395959613
100.178520696045
100.145111339813
100.162316454019
100.177342560743
100.297355480145
100.367416685285
100.345756393815
100.342477577998
100.36124833335
100.339561402401
100.293120488947
100.458548100571
100.484786964004
100.491852452298
100.525742396278
100.595896723745
100.600107558996
100.520871796668
100.453885024647
100.387453350785
100.349535468035
100.373530856772
100.372057148533
100.368980457926
100.369073685105
100.369989780761
100.370973889946
100.37224447716
100.374057103668
100.376399789302
100.379117551551
100.381953004707
100.384462959357
100.3860590891
100.38483582636
100.383142226374
100.381138137304
100.378945831148
100.376749948069
100.374572581539
100.372409780065
100.370389886811
100.368671191747
100.367332811309
100.366334902762
100.365553549316
100.364844396068
100.364132447512
100.363399406523
100.362711337292
100.3622609655
100.362288192378
100.363006002151
100.36451364804
100.366602926655
100.368569843515
100.370161349464
100.371531926627
100.372464742099
100.372373878913
100.372317235954
100.371771711056
100.371348432777
100.369840509447
100.368114035982
100.366118888415
100.364108446125
100.362746421465
100.362194005193
100.362309888353
100.362818455793
100.36349189789
100.36418152194
100.364840416095
100.365494446125
100.366225545905
100.36715692025
100.368410920834
100.370018051944
100.37191242155
100.373949174142
100.375985123757
100.377988119987
100.379933112361
100.381683846242
100.383182030447
100.384273584009
100.384809356001
100.386662474087
100.387922933237
100.387279805812
100.385976129969
100.384154859468
100.381980299741
100.379610261787
100.377252152337
100.374955680462
100.372725095394
100.370648851044
100.368871361994
100.367466560127
100.36639946944
100.365558581533
100.364793131699
100.364032558624
100.363274115985
100.362609853846
100.362259057776
100.362452052814
100.363333982577
100.364955899067
100.367071548907
100.368995877494
100.370512492729
100.371778086436
100.372656590794
100.37256391701
100.372827979345
100.373012212698
100.373032792122
100.373200729785
100.373116520642
100.373280570112
100.373183670655
100.373339214913
100.373267628101
100.373355204956
100.373243974527
100.373233683613
100.373190107523
100.37310205656
100.373107235192
100.372986782349
100.373182903104
100.373299417986
100.373215114766
100.373268129843
100.373126344046
100.373210038376
100.37304338162
100.373128135609
100.372959051791
100.372930328377
100.372742596767
100.372615669631
100.372824202053
100.372863042751
100.373027976015
100.372961203076
100.373118404133
100.373071562429
100.373195199791
100.373142357511
100.373182622003
100.373035244649
100.373065176462
100.373010520261
100.372998082939
100.372898599577
100.372969277933
100.37307923342
100.373064185922
100.372973169043
100.373027151063
100.372883663869
100.372929847329
100.372770609993
100.372722040666
100.372500084345
100.372317612149
100.372571948231
100.37264231016
100.372794773038
100.372790831419
100.372899334267
100.372967378494
100.37291010502
100.373035516513
100.373132759813
100.373159725927
100.373231705902
100.373301977381
100.373369442003
100.373255024743
100.373416521994
100.373344032325
100.37344489241
100.373342142992
100.373343605815
100.373199093774
100.372884000842
100.372584062998
100.372464092035
100.372395954701
100.372292187205
100.372239897472
100.372319320508
100.372408644811
100.372567594158
100.372668932749
100.372750914735
100.373103656133
100.373026939916
100.372943057104
100.372928837062
100.372967052144
100.372920581245
100.372621185828
100.37243209242
100.372364804255
100.372213746485
100.372294682935
100.372265565296
100.372561328824
100.37284021394
100.37284709169
100.372844613897
100.372943903751
100.373037150638
100.373105318794
100.373157864242
100.373190885793
100.373235221383
100.373287662843
100.373351775078
100.373380847471
100.373480264081
100.373358947936
100.373379940789
100.3731839952
100.372961080697
100.37271377033
100.372197881053
100.371684232173
100.371232145686
100.371097007128
100.37088763119
100.370984082296
100.371319383094
100.37159921517
100.372106275862
100.37192420768
100.371676587988
100.371248293638
100.371126410086
100.371043273473
100.370890057032
100.370801147702
100.371015871519
100.371295869493
100.371521883744
100.371611947002
100.371578871394
100.371234322522
100.371478460411
100.371930253304
100.37185635248
100.372329274317
100.372590970098
100.37281762693
100.37292664996
100.372928033315
100.373021418814
100.373099525097
100.373181264118
100.373115455003
100.373281681714
100.373192232771
100.373361574154
100.373426044555
100.373317055148
100.373472627748
100.373530658377
100.373462256165
100.37356163589
100.373522440942
100.373329177937
100.373381989693
100.37340583319
100.373495693707
100.373475220606
100.373534221312
100.373401631309
100.373486097678
100.373372301496
100.373423666529
100.373573406401
100.373501016141
100.373597422975
100.373596757746
100.373469723138
100.373447821609
100.373044711381
100.372912646469
100.37284036013
100.372379647907
100.371861738573
100.371419276168
100.370743765198
100.370491021556
100.370220766163
100.36999254359
100.369793793083
100.369623741407
100.369357038324
100.369118742969
100.369075118824
100.369456386684
100.369779061579
100.369974529232
100.370111078598
100.370317147595
100.370506796591
100.370192954377
100.370390500356
100.370075284728
100.37050748686
100.371686198725
100.37270085379
100.372919459863
100.373010412822
100.373176601729
100.373191510114
100.373347963096
100.373259549093
100.373327982737
100.373483623404
100.37353138261
100.37358029135
100.373479284019
100.373622136818
100.373558384659
100.373650128349
100.373643038282
100.373522659566
100.373490818639
100.373145220949
100.373010627502
100.372609631466
100.372177043111
100.37179519156
100.371601698709
100.370962539669
100.370738712985
100.370504378247
100.370350975813
100.370361798001
100.370062330995
100.369781447441
100.369584513986
100.369235183906
100.369415558419
100.369755759977
100.370055160233
100.370232611332
100.369940438238
100.369653248952
100.369261016641
100.369303466789
100.368848820535
100.368449861987
100.368151437076
100.367949182658
100.367781609625
100.368091836278
100.368364179331
100.368659492968
100.368991169801
100.368638114629
100.36878112103
100.368864985133
100.369123325184
100.369231652613
100.370086897445
100.37143473811
100.372502849147
100.372732619812
100.372843770595
100.372934545946
100.373102511188
100.373110461775
100.373180943893
100.373265657661
100.373256819296
100.373265117155
100.373418417562
100.373472509216
100.37338645101
100.373441071367
100.373490528901
100.373614460382
100.373527008237
100.373658373881
100.373595706841
100.373687340465
100.373669142698
100.373605631122
100.373521212176
100.373254264079
100.373099485008
100.372690375471
100.372266008321
100.371931553856
100.371344048106
100.371175299644
100.370990907485
100.370775070203
100.37063352107
100.370656021032
100.370500234187
100.370766882521
100.370475156632
100.37017886634
100.369881301366
100.369555059295
100.369189462941
100.368778386047
100.368386243395
100.367798213554
100.368098905591
100.368602059064
100.369071135397
100.369311996415
100.369585634829
100.369893509881
100.370198649633
100.370209314823
100.370019265599
100.369564234799
100.368626947952
100.36849751931
100.368424413748
100.367703758239
100.367207439597
100.365808395285
100.366248385259
100.367121539779
100.367938342004
100.368717004263
100.369095690644
100.369078778922
100.368498739778
100.36765123666
100.366935279418
100.365798361563
100.364952710282
100.364368180588
100.362296265144
100.360708564349
100.363201936792
100.364085181102
100.36486092123
100.365692532835
100.365575759319
100.364092296314
100.363368143862
100.36216601029
100.361072408374
100.360125662453
100.359602160951
100.360561827789
100.362252816133
100.363534052106
100.364227601774
100.365239487428
100.365890396599
100.366743925554
100.367816058793
100.368607664756
100.369368620612
100.369991040305
100.369357821847
100.369742474876
100.369664422956
100.371623759514
100.371327474108
100.37095706411
100.370530962536
100.370083663933
100.369363468766
100.368323369784
100.366740913065
100.366145984571
100.364547309532
100.365224799642
100.365020629613
100.362951954779
100.362220809101
100.360623952179
100.356294530696
100.357470742488
100.356909459913
100.358474305474
100.35950875305
100.363891409439
100.365451834524
100.368376790956
100.368976840996
100.370691942112
100.370014376077
100.369040604581
100.368957649169
100.36894052676
100.368975842596
100.36925920192
100.368546916526
100.36700169197
100.366716037292
100.366663407101
100.366805500952
100.368948377077
100.370644924967
100.370619048583
100.371222507971
100.371638145201
100.371652097092
100.372019167641
100.371809333052
100.371983895824
100.372051163108
100.372153438752
100.372088513431
100.372018141461
100.371879503968
100.37131251528
100.371143876707
100.371328096657
100.371418810416
100.371305774102
100.371544169444
100.371480559796
100.371630335
100.371945409387
100.371972555359
100.372122701831
100.371836149886
100.372033904262
100.372079289336
100.371763455594
100.371901044363
100.371612054096
100.37158342841
100.371192881183
100.371088162565
100.371494260312
100.371534314852
100.371799636797
100.371733068832
100.37196558172
100.371810029289
100.371980602813
100.371821860144
100.371796098156
100.371734183171
100.371798469466
100.371920496775
100.371803251666
100.371691810546
100.37156168673
100.371228079808
100.370754537751
100.370336650082
100.370761556062
100.370817534774
100.37120822404
100.3710900031
100.371526754111
100.371650277698
100.371786664308
100.371532855566
100.371722789079
100.371780136411
100.371629710318
100.371680102096
100.371354226408
100.371385880205
100.371166327188
100.370629141489
100.370477374941
100.369758090444
100.369893680018
100.369977169452
100.370733801723
100.371140239656
100.371176981665
100.371564180675
100.371352467027
100.371732447782
100.371661571022
100.371510520184
100.371690622174
100.371539697752
100.371341136506
100.371202662525
100.371449543459
100.371524188331
100.371635657111
100.371543008458
100.371476449016
100.371304938664
100.370962303262
100.370277030876
100.369551592893
100.370203747511
100.370375170961
100.370820014036
100.370797245788
100.371246056619
100.371420900753
100.371492519
100.371188938961
100.371455883752
100.371482887089
100.371340499849
100.37138249815
100.371461095877
100.371096943743
100.371121926451
100.37080287712
100.370125164388
100.37018629522
100.37085924922
100.370860188902
100.371375501761
100.37114957428
100.371259665396
100.371328989909
100.371333592163
100.371397777807
100.371440559529
100.371548885179
100.370339070226
100.371041867427
100.371077461121
100.37129546667
100.371700284622
100.37182901062
100.371849958004
100.372079107798
100.372082173061
100.372189759828
100.372301582868
100.372180277246
100.372252387674
100.372104918451
100.372136183117
100.372205226748
100.372222509743
100.372291197189
100.372407032297
100.372434730726
100.372462503371
100.372163112809
100.372156982419
100.372193025904
100.371992971781
100.371644815687
100.371376777638
100.370680832514
100.370012372663
100.369386344735
100.369618882391
100.369891529946
100.369859474728
100.369731514204
100.370218238357
100.370246617758
100.370416826426
100.370424230385
100.370083356375
100.370452252324
100.370755678299
100.371148125598
100.371511393235
100.371717720381
100.371781964948
100.371840107389
100.371896867087
100.371915113511
100.372001070634
100.372193704693
100.372178320079
100.372374243939
100.372303549243
100.372459057166
100.372657612409
100.372585081978
100.372610458464
100.372345633811
100.372300085493
100.372099420164
100.37163260401
100.371164003011
100.371040194003
100.37121176921
100.371305505729
100.371923238822
100.371491882769
100.371611983548
100.371926779633
100.372039420891
100.372215620601
100.372197792903
100.372315555653
100.372266913142
100.372526317322
100.372442150469
100.372489654832
100.372750018287
100.372697951377
100.372723949886
100.37262433086
100.372468302572
100.372634472122
100.372624435132
100.372713158814
100.372795074231
100.372850589099
100.372758385866
100.3726516599
100.372647735884
100.372453140439
100.372426752906
100.372247244585
100.371923610146
100.371949530018
100.371498047692
100.3711341808
100.371103688397
100.370880192171
100.370765817088
100.3707223066
100.370650419127
100.371325324545
100.371763928557
100.371829088716
100.372037400766
100.372092344729
100.372325865548
100.372495266366
100.372323745655
100.372668509214
100.372643294752
100.372769318057
100.3728482435
100.372955481894
100.373026877171
100.373117735307
100.373189658481
100.373272447718
100.37333696122
100.373402872529
100.373454483949
100.373506074113
100.373543046801
100.373583951394
100.373537901043
100.37364650016
100.373564853901
100.373689444229
100.373640691552
100.373739735615
100.373709023168
100.373687680872
100.373645261004
100.373600018632
100.373435745165
100.373215827186
100.372826834699
100.372423440947
100.372103846079
100.371548194409
100.371418132554
100.371195366744
100.37108170878
100.37108572025
100.370845891352
100.370712740238
100.370986694881
100.37104426208
100.371164171674
100.371293341983
100.371052090539
100.370810852203
100.370558432519
100.370270086999
100.369946628925
100.369449621294
100.369707309387
100.370104104436
100.370386215791
100.370648433119
100.370910012681
100.370800925787
100.370515008627
100.370238381301
100.369945868161
100.369550337124
100.369010490838
100.369441312226
100.368934853602
100.368415741014
100.367947420473
100.367525301218
100.366755917732
100.367171426496
100.367785245536
100.368121205008
100.368578417151
100.368544951374
100.368319606763
100.367933211341
100.367691686713
100.367290548188
100.367487899147
100.367655274514
100.369451514935
100.371368558201
100.371665982009
100.371964068554
100.372052736706
100.372846280851
100.372756096308
100.37310726704
100.373179470391
100.373323495351
100.373333541859
100.373395134929
100.373524560132
100.37356657775
100.373611081879
100.373642392837
100.373580279909
100.373672655985
100.373613604526
100.373718751503
100.373681141627
100.373763580879
100.373719120553
100.373704424013
100.373656210916
100.373472139033
100.373315414852
100.372953254898
100.372612033637
100.372284751571
100.371773228481
100.371621097144
100.371244771957
100.371320440885
100.371120088083
100.371231598696
100.371240621422
100.371409768019
100.371184539798
100.37124875999
100.371428234714
100.371554827405
100.371499966778
100.371614140451
100.371372594742
100.371143638781
100.370905004991
100.370628106979
100.370327954356
100.369980063788
100.36954301102
100.369134513599
100.368703324987
100.369082112135
100.369516957207
100.369784278825
100.370149478685
100.370459566406
100.370734882921
100.370982437383
100.37123396349
100.371258307793
100.371127739719
100.370461572147
100.370808519927
100.370081009849
100.369537888527
100.370035090181
100.369790548187
100.37017102671
100.369927496457
100.371919953276
100.370815306505
100.370461914987
100.370110910963
100.369759444172
100.369369603423
100.368888034859
100.368191930742
100.367326607599
100.366395314363
100.364098821003
100.363789905061
100.362833545564
100.362142863914
100.361265582705
100.360786667183
100.360257655164
100.359561660177
100.354084289181
100.355345297383
100.355259566847
100.355182198601
100.35553014802
100.35656099736
100.357002009742
100.356380588952
100.355659467086
100.356557321459
100.356039952283
100.356297668514
100.3569947781
100.357032839999
100.355962505653
100.356029807652
100.358955400159
100.354540727832
100.35405001249
100.355982217587
100.356205056536
100.356849017199
100.357764982411
100.358911647106
100.359690507761
100.359758053213
100.358070114859
100.358513418057
100.35932780024
100.358458163841
100.357391338322
100.357016170796
100.358589510969
100.360105589054
100.361892949911
100.363527736027
100.364227232045
100.362603012335
100.363931766517
100.365551660055
100.365956599445
100.367382439763
100.366344284458
100.367548148157
100.368512111399
100.369367373553
100.370009049087
100.370568955811
100.370565335795
100.370896212568
100.37079660583
100.369977659824
100.370521162539
100.37048891447
100.372113870535
100.371220610795
100.369315911798
100.368823203943
100.368352552621
100.36791485625
100.367460102692
100.366969632995
100.366385290222
100.365653715129
100.364904908286
100.363002524151
100.362248352946
100.361902920907
100.361839652339
100.36240255854
100.361271454532
100.361513716443
100.362913614035
100.363527763534
100.365233760044
100.367173651345
100.369185811498
100.36957874688
100.367654389864
100.365649083746
100.363766459461
100.36257716663
100.362185060282
100.362394415236
100.362904785505
100.363530716686
100.364169606618
100.364781904391
100.365384071008
100.366047556085
100.366883783574
100.367992993268
100.369432214985
100.371173923669
100.373099011972
100.375034223666
100.376836912039
100.378476897443
100.379930117714
100.381180661873
100.382110152476
100.382570581125
100.382528835582
100.384778555807
100.386643293645
100.38791263972
100.388481943159
100.388487189278
100.387824598581
100.386480472652
100.384593233836
100.382336639533
100.379872203635
100.377425359412
100.375065639802
100.372805498254
100.370713232558
100.368916446944
100.367479396535
100.366369137412
100.365483782686
100.364674479683
100.363882754851
100.363129556747
100.362533264962
100.362322047888
100.362693644771
100.363728775054
100.365440090624
100.367553160402
100.369422700114
100.370876499061
100.371244186333
100.372341281711
100.373039917627
100.372957783452
100.373101517007
100.372901334275
100.373331727692
100.373402125948
100.373390303408
100.373450178794
100.373455966754
100.373508679071
100.373561209198
100.373601947025
100.373674614723
100.373619634778
100.373699704359
100.373652735588
100.373744526236
100.373718836284
100.37378322834
100.373757309927
100.37374006072
100.373712007137
100.373528746067
100.373402176333
100.372974925309
100.372767787142
100.372565681622
100.372370673943
100.372088559379
100.371878701053
100.371514965332
100.371518451207
100.371439494319
100.371463396013
100.371607470309
100.371562738466
100.371861245731
100.371703770405
100.371462603275
100.371673381189
100.371751587021
100.371795703511
100.371863102622
100.371668918114
100.371630695512
100.37131107623
100.371061065184
100.370812924575
100.370511774971
100.370194886967
100.369817293644
100.36953376647
100.369752664815
100.370137307913
100.370451243761
100.370756251035
100.371003042011
100.371259533808
100.371525213562
100.37150696525
100.371584270672
100.371426120748
100.371110614194
100.371291173457
100.370976912044
100.371221648731
100.3705184662
100.370898047328
100.370553682099
100.370365918761
100.370570926284
100.370920077435
100.370776500203
100.37225484523
100.37166239224
100.369913940791
100.368210227053
100.366814401775
100.366051986835
100.365554982171
100.365073529926
100.36460409912
100.364067402915
100.36357410624
100.363042472432
100.362564590409
100.361625345926
100.361496290778
100.361227918632
100.360937632737
100.361314048559
100.361753697562
100.362141563638
100.362160969767
100.362072573669
100.362070721926
100.361872332274
100.361758127308
100.361712448948
100.361895636442
100.362002420683
100.362123439468
100.361726736726
100.360615884864
100.360387456925
100.359594573295
100.359558187869
100.35480290001
100.355049296918
100.354667318376
100.356478236989
100.356378811154
100.357247350869
100.357790538988
100.357199398436
100.356767343242
100.357294868299
100.357141473613
100.357249091697
100.357531721406
100.357804754094
100.357074641774
100.359806711884
100.358836097876
100.357947026547
100.359569886839
100.359699938669
100.356562335701
100.357296872273
100.356080317415
100.359249904597
100.360585428239
100.363781041104
100.367024070652
100.368389625019
100.368954983824
100.369979156705
100.370640192053
100.37082915552
100.370800572427
100.371170188065
100.37108867687
100.371332391416
100.371396340071
100.371190554771
100.371357669017
100.371094343741
100.370844148688
100.371146919601
100.371278025623
100.371179397986
100.370948559553
100.370507205664
100.36992866997
100.370617446647
100.370640459347
100.37101055957
100.370943157878
100.371165534462
100.371343313566
100.371368453457
100.371057737204
100.371280586332
100.371337661479
100.370918842441
100.371076079112
100.371189966825
100.370780110858
100.370775125981
100.370280876644
100.369440982525
100.368410689673
100.367947285002
100.366080479195
100.36778459103
100.367656714454
100.368806064899
100.369651539582
100.370501311467
100.370878094976
100.37087142013
100.371216920956
100.371096431577
100.371486419554
100.371245696229
100.371251026466
100.37130368659
100.371278672129
100.371276373344
100.371210000714
100.370280276804
100.370949929172
100.371092022677
100.37028462874
100.368213045971
100.369092962949
100.369342283418
100.370463431053
100.371012678288
100.371011866922
100.370560012046
100.368445495999
100.369573683463
100.369917357687
100.370686033484
100.371040872233
100.370826252616
100.370650760843
100.370526334137
100.370192316381
100.369175352789
100.370005757702
100.370897777711
100.370935402439
100.370950236124
100.369601625014
100.370278893286
100.370418953831
100.371027347957
100.371464804667
100.371502631791
100.371513829944
100.3715847886
100.371592067201