/*--------------------------------*- C++ -*----------------------------------*\
| =========                 |                                                 |
| \\      /  F ield         | OpenFOAM: The Open Source CFD Toolbox           |
|  \\    /   O peration     | Version:  v1612+                                |
|   \\  /    A nd           | Web:      www.OpenFOAM.com                      |
|    \\/     M anipulation  |                                                 |
\*---------------------------------------------------------------------------*/
FoamFile
{
    version     2.0;
    format      ascii;
    class       volScalarField;
    location    "0.4";
    object      p;
}
// * * * * * * * * * * * * * * * * * * * * * * * * * * * * * * * * * * * * * //

dimensions      [0 2 -2 0 0 0 0];

internalField   nonuniform List<scalar> 
80212
(
100.341867795164
100.341253440621
100.341204335133
100.343962463088
100.347514313738
100.347489347149
100.347805807486
100.347726272691
100.348246662212
100.349758241251
100.349084750051
100.348122245757
100.34843676072
100.349555983699
100.350178347607
100.348400632796
100.34783061653
100.347817022036
100.347499482398
100.347515728694
100.348085989699
100.348315034109
100.349194832883
100.350951975495
100.349359156355
100.347292698364
100.346344292714
100.346166601373
100.34660012897
100.346968670933
100.349578376775
100.349366442959
100.348621176055
100.348238095145
100.346805552261
100.347102459135
100.347829703091
100.347046294368
100.348496937564
100.35046690105
100.35038757051
100.34841112601
100.346995440987
100.347809958662
100.347087775011
100.346785168676
100.348210641892
100.348595217612
100.349330554894
100.349565203643
100.346958607138
100.346593592266
100.346167418821
100.346346091115
100.347294449034
100.349360582137
100.350951985573
100.349194265565
100.348319366078
100.348091057146
100.344998665575
100.345315517553
100.344769862142
100.345012080956
100.344753670069
100.344659084898
100.344224402284
100.343960975216
100.344456015053
100.344405559332
100.344758812277
100.344674964947
100.344463724402
100.3449900938
100.344299450218
100.343849648
100.344096014444
100.34408333536
100.344156734753
100.343885977495
100.343879904859
100.344150682388
100.344076187861
100.344095171057
100.343867820705
100.344340766593
100.345032592302
100.344501984787
100.344699174306
100.34477106381
100.34440947849
100.344457442079
100.343959023044
100.344225513241
100.344657809672
100.344748615992
100.345008954679
100.344766756987
100.345308856863
100.344992332024
100.343967369145
100.344057502427
100.345240369608
100.345659540319
100.34510122093
100.345737410821
100.34522664225
100.344985035655
100.345147026591
100.345529932451
100.345916528347
100.345157050333
100.345694337621
100.345263253663
100.344065614963
100.341295421039
100.342887108884
100.340442342023
100.34052585008
100.340669179492
100.343385295207
100.34170747264
100.339733902708
100.340798328117
100.34174899384
100.341868739173
100.341574547385
100.342508243758
100.342700273144
100.341590034339
100.34192354983
100.341815086514
100.341772185379
100.34148404453
100.34034897198
100.339729726633
100.341578178105
100.340921265705
100.339961017163
100.33995144974
100.340925052895
100.341554891378
100.339707748433
100.340354256733
100.341541665307
100.341834497987
100.341874353996
100.341959710974
100.341603663215
100.342701532707
100.34250875668
100.341574281959
100.341868673092
100.34174698295
100.340795297002
100.339728212657
100.341703819939
100.343375841889
100.342547740541
100.341203984243
100.341269427534
100.342836404534
100.343980591306
100.34213773091
100.340230665124
100.340988348573
100.341797542836
100.34189085595
100.341181327864
100.340415457477
100.342289191636
100.344071598728
100.340451876609
100.331265944335
100.331829438986
100.331977293145
100.331536143518
100.332386613521
100.340743612604
100.341125517206
100.341157430185
100.342001502902
100.3437077227
100.341114542599
100.340321735272
100.339135449198
100.342351930117
100.340083655374
100.339525430275
100.33819399679
100.339348652604
100.338831054393
100.342754634187
100.342799879544
100.338860712759
100.339437897817
100.338561089476
100.339673960882
100.338151756307
100.340750970058
100.341263111366
100.341783384067
100.340226608841
100.342478008742
100.3391734045
100.340322563105
100.341116445886
100.340736056324
100.340656265654
100.340515127717
100.340445703366
100.340462411348
100.34025782142
100.340229651987
100.332170716595
100.330641999157
100.330353460012
100.330632771609
100.330671443181
100.330445026043
100.33081518838
100.330917503428
100.332276489353
100.332164162011
100.332359450063
100.33339832429
100.338547918631
100.337941540519
100.334580912803
100.332907085303
100.331822996893
100.331918677917
100.333760687007
100.333304942688
100.333272264573
100.333688237483
100.33330592827
100.332287554136
100.332132464701
100.332260996277
100.332383158693
100.331535519343
100.331982466515
100.331844595826
100.331296764442
100.33220535654
100.330648540786
100.331198539348
100.331198113824
100.331175798388
100.331309082835
100.331331726077
100.331274793908
100.331402007777
100.33152444412
100.33171580501
100.331101433645
100.331422343656
100.331684853603
100.33173902305
100.331727986616
100.332025601059
100.332277667823
100.332229737198
100.331800742743
100.33170693315
100.331348112986
100.331066539521
100.330901174523
100.330808106244
100.33044088758
100.330680806714
100.330637132283
100.330352654996
100.331165084776
100.330995770501
100.330995441061
100.330994723314
100.330992409972
100.331107251054
100.331140626189
100.331144267224
100.331241734183
100.331266216314
100.331412431719
100.331303060089
100.331287494954
100.33125248093
100.331365569332
100.331372964172
100.33201415402
100.33165409692
100.331661597861
100.331651218101
100.331710680596
100.331522717369
100.331401679303
100.331280940536
100.331332390182
100.331304829721
100.331113861414
100.330054087942
100.329953166271
100.329965244427
100.32996213063
100.329944019004
100.33004185516
100.330092948159
100.330117881614
100.330257588263
100.330274812611
100.330373426039
100.330324510011
100.330363852509
100.330354521546
100.330413136006
100.330425957136
100.330389341931
100.330418039985
100.331311938859
100.331311246337
100.331419137118
100.331277837442
100.331249363766
100.33115516207
100.331144910294
100.330104651048
100.328890753995
100.328811531594
100.328714311618
100.328723376215
100.328718848717
100.328703150452
100.328793716674
100.32886855641
100.328930937648
100.329114205092
100.329179612874
100.329294571358
100.329312609723
100.329408249226
100.329437607847
100.329491808678
100.329487645467
100.32943562644
100.329416311065
100.329326411614
100.330355762929
100.330401765582
100.330285959634
100.330278087595
100.330137113772
100.328955371584
100.327823709767
100.327712727724
100.327590036047
100.327466200409
100.327459054045
100.327453316016
100.327449063458
100.327564653901
100.327680217764
100.32779094337
100.328040948268
100.328173044639
100.328337414268
100.328407393206
100.328554379449
100.328618415494
100.328690874567
100.328696332268
100.328625804175
100.328568467968
100.328441404077
100.328384483669
100.328217086821
100.328085727342
100.3269901295
100.326638768231
100.326454323577
100.326255853295
100.326072099585
100.326041192813
100.326033305455
100.32604598989
100.326219990428
100.32640696656
100.326582959058
100.326930229653
100.327168221238
100.327401858042
100.327537017568
100.327751055729
100.32785690374
100.327984706768
100.328022779183
100.327963327802
100.327863755902
100.327623727734
100.327471947354
100.32723139688
100.326103018959
100.325705230355
100.325169735701
100.32491972128
100.324596857951
100.324308904062
100.3242584669
100.324246489813
100.324272054087
100.324546214605
100.324852358127
100.325088979089
100.325618146908
100.326010858143
100.326352901323
100.326593513567
100.326941845876
100.327075785081
100.327331577282
100.327387998002
100.327224302002
100.327092412659
100.326722025427
100.326453641342
100.325147630461
100.324652702774
100.323996870836
100.323095863641
100.322839711752
100.322332115613
100.321876969215
100.321837643588
100.321820160473
100.321822945922
100.322261200512
100.3227433587
100.322982635778
100.323871964373
100.324520772791
100.325017535457
100.325453229181
100.326066158759
100.326125832302
100.326635124004
100.32667331534
100.326242731867
100.326182659087
100.325587278143
100.324042065327
100.323092208746
100.322361180932
100.321491263921
100.319859515422
100.319655791094
100.318936385675
100.318030830259
100.318145301602
100.318111134625
100.317944110207
100.318834199758
100.319514199047
100.319704294827
100.321303976708
100.322169299996
100.322911104823
100.323890960659
100.324967333161
100.324725303545
100.32573150782
100.325770066663
100.324800833616
100.325062055525
100.324206054739
100.321945318964
100.318398223651
100.318043054208
100.316966476452
100.313843123912
100.313865470426
100.312888455786
100.310933013714
100.311740355669
100.311700595216
100.310780806277
100.312743029469
100.313644782015
100.313615351978
100.316657576665
100.317751565762
100.318096313081
100.321714792188
100.324071932
100.322712309957
100.324867086066
100.324921739097
100.322796604663
100.321475751153
100.317008286729
100.311553338881
100.31064316617
100.31266530363
100.310780368736
100.305532507753
100.305707121366
100.304417867105
100.300730847327
100.302750142263
100.302733355269
100.300611647236
100.30419307879
100.305402969616
100.305111469642
100.31035885536
100.312213917625
100.310133694628
100.311232536294
100.316812311051
100.321323641758
100.317018300331
100.315671390416
100.315662213538
100.317054334442
100.33153337605
100.333719990375
100.331799046704
100.327208196623
100.326076720859
100.322333477172
100.316998875359
100.315521746924
100.313998251892
100.31007136509
100.310834380541
100.310814744263
100.309920705077
100.313730109303
100.315137466052
100.316394096154
100.321682321097
100.325386218591
100.326502230962
100.33129982024
100.33338157362
100.331377781146
100.336692467117
100.33673860761
100.376022501045
100.372277587933
100.369791139055
100.368697412229
100.364826268728
100.359708227019
100.353569399869
100.353931341683
100.345020283498
100.344628627365
100.341340210857
100.349999702156
100.366822792093
100.36681331712
100.349851357208
100.334998898945
100.335054010454
100.383022555975
100.41887318018
100.397838919265
100.397901270202
100.406215585387
100.39843468821
100.382235798803
100.341154457774
100.344262795686
100.344558310686
100.35315123926
100.352648142617
100.358737770443
100.363847587146
100.368051025324
100.36931866351
100.372060948571
100.3759360886
100.417220556833
100.417281102901
100.432829072607
100.421460222569
100.41520610688
100.411675737677
100.411556126313
100.418695558084
100.399179504906
100.3913301171
100.405409523252
100.391385058943
100.397517299819
100.396878591788
100.398591338213
100.406169729517
100.438377198157
100.432261719574
100.432295150685
100.43844411453
100.427050734123
100.429456129846
100.433240920976
100.396895396031
100.382418604349
100.396566190195
100.434622394221
100.453820527842
100.46822179388
100.475804897402
100.480727609116
100.485428018278
100.487835644776
100.489079014468
100.489917063955
100.490474518533
100.490900534035
100.491305443306
100.491706704395
100.492050086837
100.492355671015
100.492739659294
100.493356927235
100.494324133557
100.495672793976
100.497414105973
100.499854074731
100.503755129105
100.509856568456
100.520119321169
100.530516127611
100.548809855338
100.537162787071
100.487006250471
100.438437477091
100.387323950793
100.359238002074
100.37731746074
100.377871654889
100.375701598026
100.375697566853
100.376714353504
100.377842627347
100.379042996497
100.380461720233
100.382043770115
100.383575373342
100.384834829841
100.385693229034
100.386090731844
100.385562142283
100.384847554956
100.383901579949
100.382737924735
100.381361170686
100.379734271264
100.377912166403
100.376082153553
100.374412186701
100.372998714468
100.371804966369
100.370724370903
100.369644883663
100.368551725227
100.367663131051
100.367454016058
100.368413969297
100.370652915254
100.373341330658
100.374476823486
100.374148857753
100.373942906757
100.374059016275
100.374108289333
100.37425934731
100.374393083808
100.37450562237
100.374641262857
100.374694882225
100.374952607857
100.375237952116
100.375644428949
100.375914221826
100.375877115675
100.375856332316
100.375985596786
100.37576720194
100.375688259239
100.375635744461
100.375577458548
100.375746089626
100.375534228277
100.375121718433
100.374855229189
100.374595146458
100.374518197126
100.37448727302
100.374368892386
100.374279392861
100.374148777097
100.374005668023
100.373840030743
100.373923543671
100.374043397776
100.37419533931
100.374274774563
100.374421982159
100.374525989036
100.374755854365
100.374980560795
100.375404382571
100.375176236472
100.375223576384
100.375170282605
100.374702960145
100.374766263022
100.374662520895
100.374430615869
100.374295501155
100.374164068153
100.374072781883
100.373932224385
100.373809163086
100.373724709412
100.37359438675
100.373577617899
100.373550383984
100.373643039072
100.373707225784
100.37383095083
100.373938754136
100.374052214585
100.374202217442
100.374305522846
100.374494844201
100.374997965708
100.375365299195
100.375495279129
100.375240158055
100.375011779312
100.375266466786
100.37516393045
100.375086610373
100.375097975634
100.374985400196
100.375232427942
100.375123623365
100.374821360043
100.374367573384
100.374186551422
100.374083924136
100.373937073951
100.373820315144
100.373741385459
100.373603206869
100.373529383334
100.373459947594
100.373361313154
100.373370302138
100.373426679824
100.373496674236
100.373635113272
100.373709561623
100.373829043457
100.373866183782
100.374067441067
100.374215722571
100.374653449861
100.374911881207
100.374654022755
100.374725862125
100.374760428206
100.374367478455
100.374317754413
100.374330477418
100.374489494761
100.374130663053
100.373988700432
100.373768728946
100.373711599662
100.373679892981
100.37358656062
100.373525587118
100.37340106751
100.373320963672
100.373279622198
100.373210318949
100.373198997772
100.373232091405
100.373313792667
100.373414722383
100.373500268053
100.37360871163
100.37367331306
100.373891863163
100.374015681936
100.373938423038
100.373764520677
100.374203766033
100.374594027941
100.374637251255
100.374558002714
100.374590910907
100.374721852588
100.374531990986
100.374506155376
100.374129008211
100.373633571911
100.373464128771
100.373569841027
100.373507904518
100.373392843234
100.373304644111
100.373235304803
100.373146410197
100.373117203556
100.373033063967
100.37306543429
100.373080788486
100.373159520859
100.373209144391
100.373291485598
100.37340350436
100.373353525982
100.373245113672
100.373414622638
100.373477772054
100.373931831125
100.374298885976
100.374434434
100.374387028377
100.373881821772
100.373405177853
100.373276354838
100.373777381671
100.374238529547
100.374643801857
100.374336596232
100.374078108858
100.374323418332
100.374125961424
100.374186347048
100.37420320133
100.374042930173
100.373683582609
100.373246817886
100.37321259998
100.373225569405
100.373170943964
100.37321288358
100.373204611418
100.373130322995
100.373082971766
100.37302149377
100.372981782377
100.372958060511
100.372861287528
100.372977915465
100.372898159396
100.372947730511
100.372938776434
100.372982298953
100.373034291113
100.373085349815
100.373045694663
100.373117168771
100.373081474675
100.373018962118
100.373101709197
100.373164774712
100.373453848039
100.373760870463
100.373719942084
100.373707578283
100.373323565479
100.373069022439
100.372993527772
100.373184257012
100.373401790123
100.373535581075
100.373341556889
100.37324886288
100.373416237108
100.373348738797
100.373286212782
100.373152351301
100.37299739518
100.372945534489
100.372943923201
100.372981520735
100.372961191848
100.373002087389
100.37297239521
100.372981929466
100.372944027796
100.372893228129
100.372899604298
100.37282730758
100.372787391045
100.372856374487
100.372870330298
100.372869465814
100.372914265836
100.372934661494
100.372904273391
100.372874398121
100.372844307501
100.372827765807
100.372807911444
100.372778805906
100.372624054086
100.372988589132
100.372777001273
100.372803574522
100.372802248767
100.372799574103
100.372821468788
100.372846341676
100.372885794758
100.372891467494
100.37286214604
100.372900337249
100.372943416462
100.37308335122
100.373215888184
100.373085940638
100.373185966456
100.373025813486
100.372888424758
100.372838733685
100.372974757977
100.373073681527
100.373180279029
100.372850361112
100.373302616896
100.372937364123
100.373164238463
100.373079451153
100.372941954494
100.372802626392
100.372806983458
100.372821771388
100.372831353707
100.372822324223
100.372850827744
100.372842630736
100.372801100435
100.372804109087
100.372769859229
100.372752179289
100.372748545696
100.372676669797
100.372696860698
100.372767450437
100.372741714125
100.372728187094
100.372741893636
100.372775086484
100.372779176612
100.372772601405
100.372721122549
100.372769103378
100.37275366957
100.372757471367
100.372735313968
100.372890316608
100.373004513934
100.373248304355
100.372942639608
100.373335225939
100.373198704022
100.373255045892
100.373251147697
100.372957791577
100.372725304739
100.372757295545
100.372763720971
100.372767111193
100.372710019272
100.37272261997
100.372737397242
100.37269319596
100.37267682613
100.372665430659
100.372681045339
100.372458802046
100.372942167339
100.372602050699
100.372670487729
100.372676216697
100.372664777611
100.372679008477
100.372669370848
100.3726723141
100.372707556096
100.372677486207
100.372722216066
100.372672068038
100.373043187124
100.373360266168
100.373632993204
100.373607428046
100.373623611678
100.373377567941
100.373144722021
100.373103044967
100.373102942378
100.372712334861
100.372748268554
100.37270014582
100.372715633001
100.372676013593
100.372680532236
100.372652790589
100.372645893056
100.372639185787
100.372656499348
100.37253509462
100.372681841118
100.372640362259
100.372667463787
100.372646283656
100.372675588656
100.372739685179
100.372706823806
100.372747671536
100.372718438886
100.372725559501
100.372752422937
100.372793863972
100.372784034213
100.373120290393
100.373299108874
100.373613518682
100.373447413486
100.373568764369
100.373292972854
100.373096389003
100.372789053411
100.372834868558
100.37308680891
100.373255080823
100.373566828227
100.373293508312
100.373665489093
100.373371040111
100.373456423503
100.373434368372
100.373136932004
100.372903141278
100.372909390911
100.372843003513
100.3728300048
100.372833467364
100.372761793646
100.372715808626
100.372729269637
100.372743405254
100.37272692369
100.3726893587
100.372666815748
100.372734904933
100.37252131678
100.372835420114
100.37273454496
100.372784581461
100.372732036448
100.372753730942
100.372775100406
100.372804430683
100.37277742372
100.372809599797
100.372841196483
100.372890669209
100.372864086105
100.372899996546
100.372891286697
100.372959786269
100.37298013764
100.373334054152
100.373620920436
100.37391949259
100.37382851855
100.373932505102
100.373639761688
100.373352672986
100.372982332105
100.373034094055
100.373422013433
100.373708293637
100.374016787325
100.373863789061
100.374041712725
100.37394005457
100.373877396642
100.37384628027
100.373524947881
100.37317327243
100.373162825679
100.373022569652
100.373018330446
100.373008807053
100.372903427137
100.372851551114
100.372872315166
100.372811337797
100.372834977009
100.37281581638
100.372787506631
100.372922735694
100.372693483987
100.373008337825
100.372904223016
100.372942945197
100.372850081864
100.372869716699
100.372871148934
100.372877042271
100.372880266106
100.372963333743
100.37297921848
100.372950832051
100.372946623797
100.372961505844
100.3729361981
100.372895855773
100.372997020761
100.372985274606
100.373026410194
100.373043743508
100.373054726275
100.373107206798
100.373091254626
100.373137861661
100.373103047896
100.37314705097
100.373228661842
100.373291564613
100.373334230459
100.373667486052
100.37398166514
100.373944730732
100.373983758105
100.373717620369
100.373356220606
100.373481005748
100.373883995388
100.374134555508
100.37437283991
100.374198474316
100.374398380832
100.374164609251
100.373929266217
100.373535883521
100.373430605087
100.373274228195
100.373268794445
100.373134709638
100.373205106339
100.373195684758
100.373164041403
100.373128932946
100.373150964446
100.373100699923
100.372993890123
100.373182087613
100.373154086616
100.373239662084
100.373263546263
100.373259745753
100.373344734978
100.37331839212
100.373346618241
100.373344475808
100.373518774849
100.373642400977
100.374047553678
100.374319788138
100.374629368876
100.374373709572
100.374592511876
100.374355524437
100.374088712505
100.3737096452
100.373569422657
100.373480765401
100.373457071058
100.373347039972
100.373411238052
100.373401279723
100.373391106761
100.373363826192
100.3733890811
100.373320661377
100.373224359177
100.373452639899
100.373400044103
100.373493980457
100.37351785314
100.373517423013
100.373539870854
100.373553484229
100.373556139895
100.373647030667
100.373702047337
100.373853348276
100.374248473842
100.374547213522
100.374854502376
100.374656000578
100.37488960672
100.374637710971
100.374347289146
100.373911165643
100.373752791513
100.373872950635
100.374049871807
100.374486924359
100.374791781115
100.375113514628
100.374916616321
100.375121083319
100.374903039824
100.37457680526
100.374106213356
100.373923141687
100.373837317269
100.373645590964
100.373746290043
100.373724168856
100.373691924869
100.373684423069
100.373652739733
100.373666046874
100.373569550805
100.373499541877
100.373674239623
100.373667748681
100.373845030176
100.373856283675
100.373866667845
100.373863772819
100.373869288028
100.373900615978
100.374010832936
100.374036491949
100.374257691191
100.374760226346
100.375123311433
100.37542580652
100.375217408009
100.37544997602
100.375223576337
100.374863693723
100.374342642064
100.374107592984
100.374244762535
100.374521767652
100.375050766716
100.375414228712
100.37569132162
100.3754492237
100.375623946885
100.375456125404
100.375134050955
100.374605359489
100.374302041819
100.374204197338
100.373993416718
100.374107223958
100.374053304937
100.374108016753
100.374093510464
100.374072538232
100.374079886383
100.373889352677
100.373886416235
100.373962128983
100.373868261042
100.373961576042
100.373673365893
100.373940804989
100.373452282541
100.37397995589
100.373346994692
100.373749239299
100.373762986817
100.373531999312
100.373594539887
100.37325399967
100.373490774863
100.373320458104
100.373354934049
100.373526753539
100.373390565641
100.373321707136
100.373560974761
100.373719429789
100.373285454859
100.373509083858
100.373688345738
100.373853604464
100.3740117226
100.373775347538
100.373807730233
100.374001251918
100.374204937385
100.374125080051
100.37428854503
100.374321063104
100.374492970574
100.374651801713
100.374775101829
100.374914077647
100.375084381496
100.375224360373
100.375606535571
100.375926305837
100.376159420398
100.376103014919
100.375989495767
100.375926884733
100.375638497587
100.375089741251
100.374449104162
100.374525565485
100.374875805876
100.375005709935
100.375621809798
100.375459527806
100.375042943399
100.375146266029
100.375089489785
100.374513863764
100.373712632668
100.372933594649
100.373431220973
100.373781276808
100.373906459148
100.374002833718
100.374407293497
100.374575299576
100.374554119504
100.374432483917
100.374077063452
100.374412379092
100.37476605156
100.37462814615
100.374328058869
100.373922012698
100.373775445993
100.373904374386
100.374017826252
100.374125264189
100.374237498469
100.374365653809
100.374500297068
100.374517354513
100.37464051561
100.374792584103
100.374948430128
100.375045312113
100.375386793856
100.375777768948
100.376043504249
100.37603416068
100.376069443582
100.375970879786
100.375671453598
100.375154084275
100.374854666952
100.374866753347
100.374931366018
100.375037078936
100.375204865819
100.375354413058
100.375707879375
100.375993177046
100.376204107289
100.376141906217
100.376030255027
100.375675424564
100.37513413233
100.374606711182
100.374531043987
100.373732789445
100.373014145987
100.372453882783
100.372653184009
100.372936015789
100.372919677273
100.372924371737
100.37296441933
100.3715751119
100.37091196132
100.370841875561
100.370904241829
100.370906052038
100.371523104996
100.372032825388
100.371924519875
100.37170057947
100.370890731215
100.371592894019
100.37218096366
100.372582554061
100.3729970371
100.373550956255
100.37367346511
100.373830317462
100.373967201646
100.374057126241
100.37418173153
100.374279437335
100.37420482277
100.374365418879
100.374367617743
100.374500983417
100.37462399748
100.374613227123
100.374777002129
100.374893281996
100.375027374816
100.375160729671
100.375333113548
100.375482014453
100.375804353004
100.376081671478
100.3762958882
100.376220572695
100.376098805109
100.375760712272
100.375238053287
100.374702736447
100.373938507467
100.373288254902
100.372772475953
100.372618017416
100.371787985699
100.37147132773
100.371252737436
100.371100740327
100.370946794886
100.370674144071
100.370664903977
100.371070030735
100.371367435295
100.371434349054
100.371580595832
100.371095455746
100.371418150163
100.371695025452
100.371032621492
100.373223870975
100.374122784111
100.374202094949
100.374512332315
100.374428778621
100.374552335769
100.374747174434
100.374906515875
100.375023264538
100.375157148214
100.375289894675
100.375447657749
100.37557941036
100.375895821415
100.376162415604
100.376353942644
100.376287917346
100.376157814967
100.375819732991
100.375320153518
100.374767079349
100.374070513835
100.37344714345
100.372906447007
100.372182459542
100.371975907532
100.371760979789
100.371556429274
100.371483952536
100.371559861775
100.371340466759
100.370943486473
100.371166574401
100.371240701321
100.370837799791
100.370954093259
100.370594466453
100.37020272992
100.369816677107
100.369537576882
100.369275847285
100.369089682078
100.369401740313
100.369758970542
100.369977923054
100.370320868537
100.370591572066
100.370235582438
100.370032097718
100.370010885521
100.36986803808
100.370932398624
100.373087412166
100.373936595327
100.373977373319
100.374072606849
100.374405999872
100.374320509789
100.374534338153
100.374521214756
100.37467412279
100.374871396485
100.375038001855
100.375172275372
100.375290145532
100.375413246714
100.37557085936
100.375719910533
100.376028524139
100.376279551285
100.376459393335
100.376394945336
100.376266547302
100.375935329194
100.37543637292
100.374909418504
100.374202720715
100.37361013488
100.373104681341
100.372388604556
100.372199754687
100.372078434532
100.372065994014
100.372155702723
100.371832502534
100.371754565386
100.372102766591
100.371816386577
100.371538653984
100.371274643991
100.370903891046
100.370543823741
100.36992338083
100.370192813988
100.370684984117
100.371050266911
100.37119604459
100.371465337658
100.371483550586
100.371222283008
100.370316487994
100.370688899294
100.36972983408
100.369143550605
100.369482469337
100.36881812532
100.368135805127
100.367292383184
100.366767430778
100.364598474574
100.365302133294
100.366494182093
100.367755596963
100.368725370095
100.369550116412
100.370209899422
100.370145396829
100.369528989776
100.368902371341
100.368188857374
100.367317045739
100.365897605631
100.365799109616
100.36274444065
100.358967933126
100.358909134188
100.364183598956
100.365486220188
100.363605487849
100.360750962185
100.360551921153
100.360934592272
100.357765786244
100.356966234866
100.358626956524
100.361231194512
100.362117167872
100.363630547845
100.364146606152
100.365889047908
100.367309964879
100.368612002697
100.369570713804
100.370422328668
100.371060113224
100.371597222419
100.370739014087
100.370697735394
100.370075725698
100.373971192246
100.374050838143
100.373971075503
100.37382166126
100.373518722098
100.372956892913
100.372967861067
100.370288225581
100.367323070697
100.368907431508
100.37366967288
100.374921640556
100.372536160915
100.367804528373
100.364917884695
100.364739791142
100.349634828475
100.355096792635
100.354049013255
100.353360072987
100.358918676193
100.356242539738
100.367445400493
100.371280774603
100.37319523506
100.373203215819
100.373494359115
100.373518488407
100.373755325085
100.374018416832
100.374228791816
100.374238849897
100.374338442672
100.374326511702
100.374537894745
100.374749886261
100.374803298751
100.37500742819
100.375135217123
100.375307115368
100.375422532511
100.375538803815
100.375698629956
100.37583862663
100.376104984813
100.376354602482
100.376537185898
100.376479511597
100.376358244541
100.3760387493
100.375524223879
100.375034732091
100.374287196044
100.373706145302
100.373248375277
100.372555033781
100.372379803668
100.372253075629
100.372305857986
100.372389446522
100.372338426087
100.372610646615
100.372383353039
100.37240456952
100.372485658179
100.372554024558
100.37231181322
100.372095170925
100.371802554957
100.371933543215
100.372216099066
100.372126557393
100.371830802335
100.371454721836
100.371824369633
100.371444879029
100.37105931101
100.370675305764
100.3702690848
100.369824020831
100.369405688566
100.368625692564
100.368989139317
100.369576019846
100.370070613289
100.370335796078
100.370735966611
100.371123926409
100.371137345186
100.370912323626
100.370336741252
100.3696766608
100.369107824201
100.368220762123
100.3679360511
100.371833161784
100.373072112804
100.373483556146
100.373844845061
100.37475957874
100.374987889025
100.374978274732
100.375060028113
100.375269940855
100.375430138844
100.375543525942
100.375667599258
100.375827646995
100.375957757078
100.37618140746
100.376458348979
100.376639576513
100.376597385328
100.376466886024
100.376180137804
100.375671791588
100.375182299418
100.374468463011
100.373946333837
100.373434710851
100.37278930379
100.372588400084
100.372317540263