/*--------------------------------*- C++ -*----------------------------------*\
| =========                 |                                                 |
| \\      /  F ield         | OpenFOAM: The Open Source CFD Toolbox           |
|  \\    /   O peration     | Version:  v1612+                                |
|   \\  /    A nd           | Web:      www.OpenFOAM.com                      |
|    \\/     M anipulation  |                                                 |
\*---------------------------------------------------------------------------*/
FoamFile
{
    version     2.0;
    format      ascii;
    class       volScalarField;
    location    "0.5";
    object      p;
}
// * * * * * * * * * * * * * * * * * * * * * * * * * * * * * * * * * * * * * //

dimensions      [0 2 -2 0 0 0 0];

internalField   nonuniform List<scalar> 
80683
(
100.070253397121
100.072223167449
100.069062203629
100.073388296611
100.080414581076
100.080551029884
100.078604271672
100.079154867321
100.079139922932
100.079519844923
100.080017239207
100.079786028375
100.081510925883
100.08112614741
100.083666656838
100.083668243267
100.080239345697
100.075424755604
100.07433850016
100.074289693462
100.075293199043
100.075148793917
100.074365331166
100.075805041085
100.082251854766
100.082301391795
100.076587170817
100.074780683713
100.074675120611
100.073962120475
100.07383027165
100.074815722595
100.074766118391
100.076516362191
100.082065070919
100.081895677745
100.075698443011
100.074317367303
100.075050406026
100.07500429914
100.074122678252
100.074172766676
100.075296566598
100.080035909478
100.083307716198
100.083159073418
100.076216675018
100.075702084564
100.07350782024
100.072989441904
100.072915857826
100.072544716234
100.072009598499
100.070873211674
100.071964321884
100.073115071009
100.073277315549
100.072441337959
100.071407200138
100.070255492854
100.069883795568
100.070474098165
100.070399950635
100.069724242202
100.070277796069
100.071408173996
100.072385079011
100.073367286929
100.07334015813
100.072149874868
100.071051389461
100.072228155709
100.072655015743
100.072985549668
100.072989055514
100.073490482508
100.075928164137
100.076636348552
100.074030400621
100.077186198329
100.080303597927
100.081956127544
100.079798637781
100.079547871557
100.080711398296
100.078705753577
100.076226370552
100.072031131722
100.077332771784
100.065431167316
100.053404953085
100.059121816977
100.060239469142
100.072426988746
100.06832635558
100.069541177387
100.071695748856
100.069699449704
100.06828470257
100.067771042674
100.070344517104
100.071844112087
100.067779618012
100.066839057925
100.069175193826
100.066381468331
100.06526271067
100.066292740206
100.066297201111
100.065314012137
100.066396903514
100.069127236964
100.066798859724
100.067598361908
100.072082544671
100.070871963247
100.068107451046
100.068473630056
100.069802958468
100.07176002294
100.06949474584
100.068201897612
100.072750245421
100.072784241586
100.069786408131
100.073326475588
100.079561977484
100.084960400772
100.078326895697
100.07823368116
100.082514664216
100.097810739278
100.066424989597
100.066966718138
100.050845295495
100.024390075564
100.025300065933
100.020835445269
100.021236358078
100.02761610756
100.058369152267
100.070715478367
100.066822668563
100.066624495861
100.073522680702
100.059800171424
100.060549962613
100.060479217398
100.060671705603
100.07038118798
100.065533271322
100.065522274934
100.070327570474
100.060697838358
100.060521757001
100.060549656985
100.059635645726
100.058472012918
100.060524902581
100.058743217239
100.019247468772
100.022418787239
100.023417478166
100.023263185148
100.022461255187
100.022596224661
100.024045315371
100.024691389852
100.02801708768
100.025131679507
100.026139337484
100.029729066678
100.029733331995
100.026149570533
100.025091040524
100.027775455331
100.027283465235
100.020566486278
100.022285816375
100.029069130266
100.02950561381
100.028379955022
100.028249411663
100.029338940211
100.029207667772
100.028299088045
100.028669075594
100.028956395934
100.023739145062
100.024511039075
100.025711876044
100.025669596447
100.024395761776
100.023522421095
100.024448983147
100.023721080373
100.028066071762
100.029331152101
100.030056964183
100.030309023808
100.029475119588
100.029488680776
100.030385427428
100.030212112357
100.029529352655
100.029764233031
100.029954460231
100.029963222391
100.029241004844
100.028835330009
100.028773795838
100.029062326571
100.028614294017
100.028406619374
100.029543373298
100.027747518896
100.027593816001
100.027796569472
100.027960522749
100.027444602189
100.027393260802
100.02793431334
100.027885561796
100.02766712867
100.027886858218
100.02788507032
100.027901566824
100.027777821231
100.029583151
100.029533024088
100.029832431726
100.029723803115
100.027748942709
100.025427860208
100.025457661827
100.025339818407
100.025349776192
100.025347303922
100.025323918806
100.025226666692
100.025215028379
100.025352897068
100.02529700262
100.025493842185
100.025469073883
100.025546026728
100.025516672435
100.025507414887
100.02775195067
100.027865997474
100.025543978796
100.023650982368
100.023545544439
100.023554019248
100.023449046498
100.023461957959
100.023293733084
100.023727819867
100.023701403923
100.02323837953
100.023403153341
100.023332569034
100.023497123213
100.023495877101
100.023621501792
100.023618370782
100.023624348281
100.021953903511
100.02195991654
100.021838890233
100.021817950252
100.021692279776
100.021741296746
100.021537062491
100.021385519014
100.021416713333
100.021530348358
100.021626683039
100.021540679208
100.021686864583
100.021717315581
100.021893078937
100.021931565263
100.020186020716
100.020217215201
100.020167073445
100.019976700158
100.019909047065
100.01972907103
100.019751415873
100.019704886568
100.019208113295
100.019182213214
100.019548359431
100.019589270888
100.019572496598
100.019734241778
100.019807229083
100.020077562175
100.017927121452
100.018158929965
100.018189282827
100.018013967281
100.017676482801
100.01756036406
100.017296379004
100.017249464261
100.017315516383
100.016489274501
100.016463358348
100.017125861405
100.01705275004
100.017169303714
100.017366865074
100.017524099867
100.014217775496
100.01499428171
100.015452773952
100.015462325401
100.015034200752
100.014307632322
100.014362969197
100.013965555707
100.01349749873
100.013840225565
100.012303803545
100.012324058835
100.01380534372
100.01339144678
100.013881725195
100.01418999078
100.00948517924
100.008570165887
100.010250846327
100.011385360423
100.01134915701
100.010223792102
100.008500031379
100.009457945989
100.009035313311
100.007064678464
100.008841261401
100.005891797029
100.005678384339
100.008618169263
100.007114139292
100.009143597403
99.9968483915638
99.9964274332789
99.9914175582721
99.9948036880924
99.9991222013267
99.9990141631803
99.9946631383772
99.9912361733593
99.9963080712688
99.9966126306954
99.9895480746006
99.994335505019
99.9919587562986
99.9918307418132
99.9941958733811
99.990077047684
100.000865715404
100.007252568624
100.005424756312
100.000373827931
100.008155932744
100.010431488507
100.010256839466
100.007742373567
99.9999151063882
100.004803409525
100.006589235751
100.000155232306
99.9969793404897
100.033099443601
100.058049164548
100.058375809445
100.034044166583
99.9989790857252
99.9987624425927
100.093574045925
100.179251896289
100.122011887807
100.122458692052
100.107114138049
100.090273931057
100.076911390133
100.069580464306
100.064854522285
100.068734529881
100.083282766638
100.073767720726
100.073619716096
100.082725680133
100.067844726531
100.063922515053
100.068785569051
100.075984922339
100.089308739745
100.10621653427
100.203431236889
100.226603294076
100.226997303477
100.204118710857
100.204473486013
100.19187935045
100.213963688349
100.251287669643
100.161823806076
100.161954103072
100.2169903755
100.179541963429
100.208082562774
100.234597653696
100.174876816198
100.17471284847
100.234325622573
100.20758463334
100.178546086118
100.215822637281
100.159997765446
100.159882472415
100.212517357494
100.19068338465
100.203606527907
100.302552890791
100.354338137166
100.324634105915
100.325057274087
100.355565191463
100.319329856184
100.303823697987
100.412757386208
100.443487800924
100.41878574783
100.431681598275
100.424157427695
100.382728635073
100.321613208172
100.348783727007
100.29676841968
100.401876163792
100.430033079946
100.401136175518
100.412037251984
100.435536209993
100.386281310152
100.322692054018
100.323832001687
100.251519102871
100.295686086471
100.37574075753
100.413735406468
100.439546904717
100.455238258183
100.464216139391
100.468470458142
100.47027377019
100.471034940827
100.471156058764
100.470999726217
100.470771951242
100.470546454383
100.470414546097
100.470400580864
100.470499718989
100.470673107359
100.470878904218
100.47121248837
100.472044893242
100.474132749173
100.478871654923
100.488140019123
100.50530926498
100.529748032948
100.569616152536
100.560366101577
100.496167625965
100.440443420182
100.383950176031
100.351993657127
100.374561224896
100.372697231976
100.370623363622
100.371227668533
100.372335639813
100.373357695846
100.374560064484
100.376140650856
100.378017134169
100.379971886342
100.381740360546
100.383069009928
100.383748137198
100.382916427268
100.381863504695
100.380559768636
100.379052537379
100.377380718235
100.375554748428
100.373647437122
100.371791308904
100.370120849654
100.368696176798
100.367500395007
100.366497079162
100.365658312832
100.365019002464
100.364714210751
100.364919064326
100.36576367517
100.367255662413
100.369075578399
100.370799658516
100.371714868652
100.371810085237
100.371709024498
100.371629535654
100.371592771568
100.371689776936
100.37176048667
100.371795123789
100.371774145162
100.371950023126
100.372036859259
100.372351220065
100.372561562019
100.372821967276
100.372899369163
100.372880535788
100.372738899925
100.372625354458
100.372446540086
100.372491759285
100.372384294985
100.372616149951
100.372746179604
100.372705263522
100.372461876762
100.372236809257
100.371930229114
100.371808785581
100.371663159183
100.371697714711
100.371685700927
100.371613223218
100.371534034424
100.371596176303
100.371604222169
100.371531019407
100.371483802361
100.371537224102
100.371594387821
100.371613881006
100.371592031724
100.371683073044
100.371780728775
100.372091794319
100.372345750986
100.372587255345
100.372417197256
100.372174048117
100.371938659212
100.371647639849
100.371602148566
100.371517679427
100.371522020157
100.371508067822
100.371472565883
100.371428274097
100.371498793711
100.371501470021
100.371417215682
100.37137937311
100.371410429338
100.371437528145
100.371437379222
100.37143302651
100.371522493501
100.371572522689
100.371830451224
100.372021006492
100.372255668395
100.372262037685
100.372177509964
100.372010945415
100.371814964216
100.371727474772
100.371702188478
100.371950270473
100.372114987374
100.371867094244
100.371725536665
100.371466338513
100.371394325497
100.371333161964
100.371365659286
100.371365703352
100.371350021015
100.371322395271
100.371390994681
100.371382923358
100.37128969126
100.371266469029
100.371288597683
100.371272755959
100.37129679626
100.371278592889
100.371307819337
100.371326957329
100.371599377069
100.37173624368
100.37154651873
100.371414371211
100.371202922763
100.371248753071
100.371193680002
100.371206038767
100.371194809691
100.371231160178
100.371199990054
100.371255621657
100.371228457282
100.37114622086
100.37113405855
100.371154578352
100.371129267981
100.371138024221
100.371096926624
100.37114476734
100.371080377249
100.371304420864
100.371400973696
100.371471821342
100.371348209098
100.371248083475
100.371201273619
100.371069603429
100.371066229394
100.371050200011
100.370973595581
100.371045667862
100.371056137661
100.371039688294
100.371060753353
100.371057126587
100.371097926381
100.371011111816
100.370979435599
100.370963002322
100.37093433683
100.370940987061
100.370928938033
100.370929841336
100.370891840307
100.370985555426
100.371007635085
100.371316107206
100.371344701242
100.371368290041
100.371130529525
100.37105131046
100.37100481296
100.37104696003
100.370915642497
100.37089634479
100.370791731372
100.370845981136
100.370858244392
100.370839796102
100.370827959803
100.370869317795
100.370860633221
100.370875891853
100.370876738105
100.37076797956
100.370739390359
100.370795060211
100.370706007528
100.370793192333
100.370795698887
100.370797891089
100.370782681821
100.370773800026
100.370772532263
100.370785005203
100.370777930054
100.370834910758
100.370784437223
100.370846139975
100.370856401069
100.370695572358
100.370720285679
100.37063730044
100.370683988209
100.370769969311
100.370643351198
100.370675065706
100.370699605201
100.370699138095
100.370698420949
100.370720103149
100.370692640047
100.370704411285
100.370599411732
100.37059475349
100.370529714078
100.370652314071
100.370611151336
100.370637700273
100.370621078931
100.370615069508
100.370610912864
100.37055409878
100.370534749587
100.370536991174
100.370456701959
100.370540012861
100.370542828132
100.370602116748
100.370511486055
100.370379658048
100.370448512655
100.370229299203
100.370245427177
100.370332305982
100.370162947343
100.3703112894
100.370140013731
100.370316480449
100.370449272861
100.370401780332
100.370456825007
100.370479894078
100.370504063212
100.370506756432
100.370497945006
100.370519789657
100.370572544113
100.370464860901
100.370547245399
100.370410895103
100.370516881537
100.370456563144
100.370466425401
100.370434999102
100.370432442624
100.370460339282
100.370491844577
100.370512754624
100.370573584582
100.370646370316
100.370707392912
100.370766596804
100.370867978778
100.370898026186
100.370937316636
100.371000724308
100.371063871711
100.371118257221
100.371180812777
100.371242040377
100.371310881741
100.371373710573
100.371453454294
100.371520676109
100.371601157133
100.371774882787
100.371843831458
100.371903436661
100.371865184976
100.372050290079
100.372148762742
100.372481610261
100.37268273485
100.372969720345
100.373096654823
100.37303711843
100.372937687593
100.372603675092
100.372252709123
100.372112781869
100.371971441387
100.37186630252
100.372001134456
100.372125556073
100.372333359625
100.372481426132
100.372805642247
100.372658592179
100.372498524758
100.37225364801
100.371988957514
100.371999192829
100.371885042507
100.371806016775
100.371702741847
100.371608307038
100.371664874056
100.37165545723
100.371846603199
100.372031989063
100.372116786848
100.372198040182
100.372287010416
100.372243138322
100.372122527995
100.371927764893
100.371757850415
100.371592791478
100.371467028277
100.371499357626
100.37146001525
100.371426115949
100.371197275903
100.370853523907
100.37081162684
100.370626717046
100.370760985547
100.370867876668
100.371173327943
100.371404406119
100.371107062769
100.370860658434
100.37071837573
100.370500354455
100.370549273765
100.370588350078
100.370693491787
100.370855481758
100.370696209964
100.370539645385
100.370389889945
100.37052628245
100.370581980165
100.370610816354
100.370591244001
100.370598625713
100.370959238881
100.370997053076
100.371045044406
100.371069873316
100.371108713146
100.371128479371
100.371171842795
100.371198101333
100.371245523144
100.37127616141
100.371338643658
100.3713821944
100.371669486691
100.371863606851
100.371938984728
100.372006969689
100.371941162752
100.372168965797
100.372290853634
100.372631032477
100.372790838005
100.373153173672
100.373154069436
100.373242086973
100.373275027392
100.373085402878
100.372752564523
100.372632627557
100.372376426816
100.371958175113
100.371305273703
100.371133277364
100.371042962154
100.37087182668
100.370780783397
100.3706744763
100.370610968357
100.370531800257
100.370513828563
100.370489447766
100.370766322044
100.370961899822
100.37107314122
100.371135390882
100.37121994213
100.371225208217
100.371305197704
100.371375741468
100.371488237174
100.37158738847
100.371237349133
100.371592220802
100.371960312501
100.37184764839
100.371991128285
100.371803343115
100.37148717568
100.371185527827
100.371256550323
100.371377606698
100.371459416373
100.371754404019
100.371963868239
100.372023548489
100.372095617383
100.372052406892
100.372308114482
100.372417370664
100.372743239311
100.372899842113
100.373226353866
100.373258908289
100.373390215497
100.373177678886
100.372882989968
100.37246762316
100.37203154609
100.371429967121
100.370566890011
100.370200983979
100.370064462043
100.369924373823
100.369737296988
100.369590500034
100.369427776082
100.369294391255
100.369225346098
100.369520615891
100.369657388669
100.369831502906
100.370240185497
100.370221927428
100.370422747883
100.370054997942
100.370460902189
100.370727600447
100.370451685092
100.371125100009
100.371241715929
100.371679548261
100.371884113907
100.371782557545
100.371758475906
100.371819017725
100.372064686572
100.372093867898
100.372181909839
100.372160920372
100.372416985029
100.372527602391
100.37283590496
100.373017322653
100.373356747444
100.373372747587
100.373513685418
100.373283468143
100.373020457888
100.372609793283
100.372115918318
100.371571295183
100.370759803241
100.370411729557
100.370018512427
100.369935974256
100.369995070548
100.369756531345
100.369610512865
100.369420347918
100.369220175216
100.368982811799
100.368762595663
100.368582911444
100.368417624612
100.368220137906
100.367965667529
100.3677716506
100.368103907184
100.368385257398
100.368561631303
100.368691819002
100.368839899827
100.369028403683
100.369278035885
100.369474229492
100.369627044194
100.369729319864
100.369829104309
100.369699461679
100.369559028097
100.368951590659
100.368987652504
100.369219336211
100.369256156076
100.370166815178
100.37081788671
100.371076887348
100.371601179294
100.371776583071
100.371690639023
100.371645212775
100.371706279748
100.371727865698
100.371822139869
100.371945901343
100.371824206521
100.371870381743
100.371877734617
100.372186569714
100.372175869536
100.372281104556
100.372267224979
100.372527678401
100.372654797002
100.37294760805
100.373156848016
100.373522056672
100.373431561895
100.373649697074
100.373414988966
100.37314215345
100.372720302619
100.372241258807
100.371677415417
100.370897743683
100.370533257049
100.37006153819
100.370036214847
100.369922677896
100.370022862408
100.370149924872
100.370382809261
100.370197227555
100.370021661469
100.369874049476
100.36970192588
100.369494033606
100.369239540487
100.368997774288
100.368752619651
100.368493299705
100.368128820742
100.367737585121
100.367380357285
100.3670898148
100.36660723161
100.366860261229
100.367242686256
100.367521585999
100.367883844914
100.368167973277
100.368374612138
100.368624381458
100.368873659017
100.369138181305
100.369332257071
100.369504652063
100.369646355883
100.369897338388
100.369846321892
100.369483383643
100.368802796305
100.368564884764
100.368357160849
100.368532767284
100.368979104405
100.368786751044
100.368447039942
100.36804297179
100.367557063492
100.366939787823
100.366246684788
100.365291105738
100.363823359334
100.363299969182
100.363301965021
100.363643299729
100.364324104787
100.365059478147
100.365901265763
100.366574221901
100.367201075777
100.367711231675
100.368115331867
100.368489472878
100.369222869505
100.367602186572
100.366712655013
100.366145223742
100.365630624399
100.365116439712
100.364619284152
100.364077201591
100.363616403862
100.362605440171
100.361780443974
100.358596850303
100.356431926395
100.360788659325
100.360439574024
100.360639670598
100.358654058776
100.360408420369
100.357760528261
100.359311525588
100.360509011563
100.360547635657
100.361319101949
100.362578786827
100.363570028335
100.36465738963
100.365478536584
100.366411451573
100.367112867382
100.36776703412
100.368250437973
100.368624967727
100.368929898089
100.369304181673
100.369061567835
100.369668294574
100.367895130262
100.371286235427
100.37161828025
100.371668523369
100.371965005733
100.372294775631
100.372431352329
100.372176340372
100.371468450658
100.370499973591
100.369175606739
100.367107873359
100.365071901768
100.364433325355
100.366973611309
100.368502466008
100.364082692977
100.362229910614
100.36155503464
100.352437801659
100.355692051403
100.353175533335
100.356254967551
100.357576340257
100.366742111781
100.3684566543
100.370342080117
100.370254975608
100.370430467444
100.370597978209
100.370866471155
100.371109316284
100.371353872767
100.371577048356
100.371727222591
100.371409803725
100.370159457068
100.368283027803
100.366471081995
100.365175014825
100.364593880849
100.364642280203
100.365126738216
100.365867528815
100.366752651762
100.367789751136
100.369034178473
100.370516227733
100.372243752635
100.374157254769
100.376123618368
100.378004129435
100.379716585171
100.381243403076
100.382539707844
100.383566235651
100.384359718187
100.384915981867
100.384343706365
100.383212430761
100.382598611737
100.381761072504
100.380726833273
100.37947200377
100.378051251866
100.376486966123
100.374765958427
100.372953773447
100.371189924658
100.369605526259
100.36826344173
100.367141660512
100.366209043872
100.365465312661
100.364985209726
100.364906146438
100.365380729139
100.366473748497
100.368089758832
100.369866576714
100.371371834083
100.371965537025
100.371859286693
100.371913675173
100.371961749414
100.372079029563
100.371901116881
100.371951770578
100.37226318698
100.37223478705
100.372383430032
100.372406595129
100.372712599441
100.37286463331
100.373096157523
100.373376828412
100.373452213513
100.373650305109
100.373741751506
100.373771303511
100.373548437105
100.373272376402
100.372763686894
100.372331412207
100.372090352215
100.371712518997
100.371275473545
100.370740855793
100.370258209987
100.37015218512
100.370089946193
100.370311415914
100.370557893562
100.370504635964
100.370843441791
100.370748800696
100.370524134848
100.37061538186
100.370418741148
100.370274243046
100.370137179071
100.369948112631
100.36972849306
100.369502666845
100.369249725461
100.368966836563
100.368720222553
100.368211013161
100.368452793712
100.368787886451
100.369083319731
100.369331667725
100.369562606058
100.36980424283
100.370009497766
100.370157910738
100.370313032291
100.370545525266
100.37030086434
100.370346642065
100.370395316405
100.370048236532
100.369369778725
100.368644889458
100.368301367954
100.368469616792
100.368553551642
100.368710045042
100.371762426799
100.371303870357
100.372398232597
100.372261077267
100.372072136834
100.372205960383
100.372006628573
100.372167720377
100.372526223182
100.372394896853
100.372572627083
100.372677096566
100.373063958334
100.373439198219
100.373719212194
100.373930332078
100.373904738997
100.37375099527
100.373697835714
100.373448014175
100.372967286941
100.372514202588
100.371863448281
100.37139354199
100.370898571399
100.370428651309
100.370269702695
100.370112962375
100.370425130206
100.370311123389
100.370497806188
100.37071389967
100.370963129523
100.370881469175
100.371075324133
100.370906979379
100.370919122243
100.370745968939
100.370610583818
100.370471521026
100.37030630575
100.370126123582
100.369950436602
100.369751706076
100.369520235004
100.369267140891
100.369006447064
100.368706243049
100.368334994986
100.367917043117
100.367610560891
100.367170735275
100.36748979466
100.367895632437
100.368328536561
100.368520116637
100.36882639795
100.369116872488
100.369388918733
100.369628218375
100.36984632798
100.370043779263
100.370215177297
100.370380051741
100.370560377802
100.370738338746
100.370900359823
100.370798526571
100.370700616803
100.370686445072
100.370420749854
100.36938019597
100.368066060554
100.367706678887
100.367848236711
100.368007544177
100.368507995252
100.369443755732
100.369360810968
100.368358711403
100.370409953376
100.368578377928
100.371395714591
100.371601127788
100.372560028343
100.372001070349
100.372109278178
100.371998235859
100.371546879848
100.370935778084
100.370292252107
100.369599003929
100.369001508555
100.368438274696
100.367722195514
100.367959895667
100.365236643093
100.364740787526
100.363676769027
100.364216487466
100.36277924059
100.363671620355
100.361100470725
100.361077122606
100.348512698514
100.353410371688
100.350828922761
100.353995028892
100.35661172363
100.356897442951
100.355034381781
100.355814499699
100.355640068035
100.362834147105
100.358461523313
100.35871015511
100.356445340876
100.356005881162
100.355230124582
100.357239853417
100.358413545708
100.359058215533
100.358585168768
100.356739191345
100.357244159618
100.360022551631
100.360867386527
100.362702478675
100.362368859742
100.363953732106
100.365194482837
100.366401775044
100.367263375091
100.368017160322
100.368548957101
100.368957477276
100.369271089625
100.369604274335
100.369625058372
100.369514352944
100.369658839476
100.369492684672
100.369074539119
100.367746024134
100.370338412827
100.371851644063
100.372639013621
100.372341458612
100.3722923346
100.372304249917
100.372275778365
100.372703989088
100.372644897408
100.372839042795
100.373024997712
100.373566723183
100.373717902771
100.374190706876
100.374346282535
100.374267395013
100.374349267096
100.374185982752
100.374093688701
100.374103030965
100.373888284463
100.37359923722
100.373161764147
100.372692355228
100.372619522867
100.371834380218
100.371453289915
100.37112936077
100.370896084814
100.370685743611
100.370473639076
100.370263405562
100.370508553792
100.370593857695
100.370894894917
100.371076018042
100.370996442019
100.371150689632
100.371095621505
100.371194424151
100.371073902642
100.37098637183
100.370827802778
100.370808044222
100.37060525295
100.370449753491
100.370263505095
100.370080062879
100.369859993574
100.369652082084
100.369386624814
100.369107399127
100.368831032943
100.368499270941
100.368105347387
100.367830431299
100.368050686447
100.368456221147
100.368785851238
100.369076313401
100.369356838369
100.369619660014
100.369834237399
100.370035023383
100.370226481382
100.370406491862
100.370561351692
100.37073972837
100.370725658206
100.370787049087
100.370631753149
100.370514701314
100.370738241653
100.369804068794
100.36999351963
100.368528213255
100.36882429798
100.369303381382
100.369258759134
100.369131648489
100.369249577958
100.369744700959
100.368707991099
100.371960708312
100.37312390322
100.373467809349
100.372921127664
100.373515991058
100.372723627838
100.372383267039
100.371762418973
100.370565535184
100.369688734234
100.36879554513
100.367922827514
100.367259624067
100.36633366911
100.365232099539
100.365715166734
100.367131732573
100.367972674208
100.368873277988
100.369788697399
100.37064625114
100.371418876289
100.372075452917
100.37233462152
100.372789429586
100.373201276513
100.373087579129
100.372210465413
100.372067148002
100.372294382983
100.372203505444
100.372043197713
100.372154649869
100.372209522022
100.372051818254
100.372411714077
100.372437280047
100.372479967166
100.372815496829
100.372870936255
100.373227985391
100.373628379419
100.373876937481
100.374064190311
100.374030086207
100.374025220905
100.373973119049
100.373745542441
100.373337990641
100.372832308692
100.372366618577
100.372866215482
100.373076335874
100.373402731981
100.373823242749
100.3740134568
100.37420511657
100.374318155711
100.374124909521
100.373950520164
100.373656543562
100.373612766603
100.373325673408
100.372835718651
100.3727596102
100.37261346263
100.372650691201
100.372197220425
100.372275913468
100.372266895282
100.372175693068
100.372205201151
100.37224570492
100.372106999288
100.372505235781
100.372553871771
100.372666891703
100.372678398941
100.371976911104
100.372140137105
100.372308072102
100.372486714537
100.373006623433
100.37315267541
100.373596102087
100.374191552603
100.374402278939
100.374373964049
100.374148310016
100.373804454517
100.37370616188
100.373320875296
100.373287489508
100.37318161771
100.373006455537
100.372623825288
100.372260294994
100.371688902888
100.371536928344
100.370935511315
100.370737427465
100.370617418386
100.370384173312
100.370618437466
100.370611478555
100.371025343243
100.37089713756
100.37104032148
100.371149505399
100.371233848649
100.371199752604
100.371284907118
100.371266968892
100.371311388913
100.371204197751
100.371085411134
100.370948695379
100.370776566998
100.370584832071
100.370408892518
100.370203219844
100.370004204022
100.369751892277
100.369528393653
100.369241016371
100.368936129622
100.368637669829
100.368269844589
100.367841004512
100.367519817907
100.367042492611
100.366452882416
100.365849712615
100.365279269015
100.364498368687
100.363781263205
100.364639362505
100.36537806682
100.365983069235
100.366604226155
100.36713015693
100.36752569711
100.367706771806
100.367383816385
100.367140326053
100.366594491582
100.365998723295
100.365405068253
100.364323287866
100.365165337602
100.365543946274
100.36619408506
100.366764725967
100.367147220705
100.366418764164
100.365930166792
100.364852243031
100.365417748686
100.365930135022
100.36652254896
100.367144280135
100.367664868666
100.368082229324
100.368231651632
100.367665250377
100.367202575534
100.366784871082
100.366292023924
100.365410102167
100.365872782932
100.366527689603
100.366830344422
100.367215249448
100.367638728274
100.368144111661
100.368555523757
100.368851005381
100.369099928347
100.369338939534
100.369592585381
100.369808577409
100.369970899329
100.370122160894
100.370105769951
100.369683017763
100.369062933785
100.368048966701
100.368192421641
100.368482446275
100.369165366847
100.369886306366
100.370304677778
100.370245374992
100.370355894975
100.370506686021
100.369888824134
100.369336660697
100.36976423336
100.369283918156
100.368706503723
100.367914833446
100.367016702192
100.365809639352
100.364466149059
100.364421103466
100.365953348845
100.367225339404
100.368151759421
100.368941425172
100.369510564622
100.369982953002
100.370324968795
100.37014934392
100.370527751284
100.370669349167
100.3708492174
100.370509971507
100.370151209662
100.370002660629
100.369640272635
100.369701283949
100.370301582206
100.369090938964
100.371466200013
100.3719924636
100.372881702645
100.372866260604
100.37366178777
100.373252615292