/*--------------------------------*- C++ -*----------------------------------*\
| =========                 |                                                 |
| \\      /  F ield         | OpenFOAM: The Open Source CFD Toolbox           |
|  \\    /   O peration     | Version:  v1612+                                |
|   \\  /    A nd           | Web:      www.OpenFOAM.com                      |
|    \\/     M anipulation  |                                                 |
\*---------------------------------------------------------------------------*/
FoamFile
{
    version     2.0;
    format      ascii;
    class       volScalarField;
    location    "1";
    object      p;
}
// * * * * * * * * * * * * * * * * * * * * * * * * * * * * * * * * * * * * * //

dimensions      [0 2 -2 0 0 0 0];

internalField   nonuniform List<scalar> 
80212
(
100.337194395893
100.336581315518
100.336532238357
100.339290024555
100.34284117987
100.342816483377
100.343132805555
100.343053400656
100.343573957242
100.34508464969
100.344410932255
100.343447684085
100.34376148237
100.344880747173
100.345502545769
100.343725226552
100.343154358628
100.343140246893
100.342822180791
100.342837629813
100.343406580899
100.343634963085
100.344514199781
100.346269498756
100.344676266814
100.342609149608
100.341660613063
100.341482376486
100.341915444885
100.342283846558
100.344891046887
100.344680018475
100.343934823872
100.343551033243
100.342118852966
100.34241578125
100.343142158951
100.342359759441
100.343810563388
100.345779781969
100.345700813515
100.343725593723
100.342310253961
100.343124635714
100.342403982384
100.342101857938
100.343527606445
100.343913408637
100.344649144805
100.344883267381
100.3422795312
100.341914846849
100.341489336114
100.341668710248
100.342617258159
100.344683997845
100.34627571634
100.344519601885
100.343645008661
100.343417061885
100.340325068519
100.340641580918
100.340095811555
100.340338013164
100.340078230575
100.339982939507
100.339547409959
100.339283459298
100.339777592646
100.339726261484
100.340079234253
100.339994436137
100.339782634041
100.340307949617
100.339616428927
100.339166077092
100.339412307486
100.339398095014
100.339471345682
100.339200855756
100.339194483615
100.339464401449
100.339389459478
100.339409073956
100.339181452378
100.33965417048
100.340346223023
100.339816104856
100.340013490198
100.340085923166
100.33972424714
100.339772902897
100.339275224152
100.339542117239
100.339975188765
100.340066765736
100.340328632629
100.340086558141
100.340628898778
100.340313168343
100.339289844696
100.339380643298
100.340563655524
100.340983551962
100.340426284835
100.341063425186
100.34055262357
100.340311716359
100.340474150724
100.340857169049
100.341244335221
100.34048484677
100.341021798294
100.340590591546
100.33939332902
100.336623757512
100.33821512552
100.335771580653
100.335853950437
100.33599603109
100.338711474182
100.33703335678
100.33506020619
100.336122929938
100.337073255568
100.337191808297
100.33689728078
100.3378300178
100.33802106939
100.336910471793
100.337242635737
100.337133757682
100.337090072557
100.336800885356
100.335664831092
100.335046276339
100.336892355918
100.336235612851
100.335275650905
100.335265800289
100.336238544375
100.336867427751
100.335021786419
100.335667160858
100.336854812308
100.337147873867
100.337188089856
100.337273268472
100.336917988826
100.338015816363
100.337823884517
100.336890392788
100.337185025729
100.337064468936
100.336113140098
100.33504792945
100.337023131486
100.338695344767
100.337868557952
100.336526535612
100.336592929075
100.338160235453
100.339304947131
100.33746308168
100.335557300717
100.336314622718
100.337124685032
100.337218427245
100.336509022637
100.335744309832
100.33761734375
100.339399404143
100.335782037367
100.326604733273
100.327165883979
100.327312184037
100.326870571945
100.327715174154
100.336067990198
100.336450388752
100.336481914675
100.337324820788
100.339029538578
100.336435566678
100.335641153248
100.334452915427
100.337669272741
100.335400239823
100.334841182018
100.33350868094
100.334660363033
100.3341429547
100.338066654641
100.338111381387
100.334171358542
100.334746198908
100.333870201105
100.334985807302
100.333463275945
100.336063723372
100.336576103124
100.337096474122
100.335538809667
100.33779020604
100.334483401642
100.335633643084
100.336428164896
100.336050846686
100.335974243846
100.335835071357
100.335769002868
100.335788200446
100.335585432899
100.335559049952
100.327507642616
100.325984569351
100.325697140981
100.325973694863
100.326010466648
100.325782685032
100.326146723512
100.326244653134
100.327602521755
100.327486373298
100.327677315372
100.328712465343
100.333862692242
100.333258653394
100.329896410385
100.328220838488
100.327133908067
100.327226842774
100.329072409819
100.328615345897
100.328580791293
100.328995096969
100.32861225703
100.327594603552
100.327442115328
100.327573399391
100.327697568172
100.326857158254
100.327305777671
100.327171790772
100.326630047497
100.32753953093
100.325988483014
100.326547541952
100.326551210962
100.326530613125
100.326662147951
100.326681695515
100.326619030208
100.326738672938
100.326852263631
100.327034383721
100.326422057043
100.326738338064
100.326997581577
100.327043954396
100.327027840238
100.327319949122
100.327582018129
100.327531050731
100.327101557926
100.327006773894
100.32664889763
100.326369900235
100.326209314915
100.32611996739
100.325760540903
100.326003286125
100.325965485893
100.325687940328
100.326507819063
100.326349569712
100.326359067623
100.326365814229
100.326366505688
100.326480263843
100.326507860649
100.326502399768
100.326586431671
100.32659718067
100.326729040762
100.326612327205
100.326586354698
100.326540233026
100.326648050902
100.326649222692
100.327304265583
100.32694292053
100.326949995234
100.326940236861
100.327001479461
100.32682101692
100.32670771282
100.326595877004
100.326657328234
100.326639571868
100.326454103991
100.325407877411
100.325326054881
100.325355621562
100.325364154519
100.32535069667
100.325445455709
100.325486068842
100.325497905607
100.325615527791
100.325608807201
100.325690267026
100.325627546788
100.325650515867
100.325626060344
100.325675566269
100.325679256997
100.325636503138
100.325665009058
100.326584027849
100.326583639205
100.326694601859
100.326562916325
100.326545903756
100.326467801713
100.326471553738
100.325434573222
100.324225901935
100.324183475116
100.324121997693
100.324156329791
100.324171109933
100.324163005181
100.324246020163
100.324304561378
100.324341871023
100.324489973954
100.324521487343
100.324609332134
100.324603355437
100.324675569119
100.324683585897
100.32472380605
100.324706206656
100.324645231966
100.324622450735
100.324531432634
100.325602998574
100.325654438776
100.325549944885
100.325558632145
100.325445866586
100.324252946081
100.323102194349
100.32304834624
100.322987022017
100.322923249203
100.32295918367
100.322985418741
100.322993503027
100.323093323953
100.323180218185
100.323246742454
100.323444635468
100.323523940455
100.323643291415
100.323678983173
100.323792662578
100.323825463845
100.323877695285
100.323862898038
100.323778317224
100.323713972074
100.323580450994
100.323533637955
100.323392270867
100.323299930556
100.322146358402
100.321877194057
100.321787709733
100.321693497121
100.321605225094
100.321653699565
100.321698186297
100.321726783793
100.321871555236
100.322004511577
100.322111799248
100.322373019607
100.322521464994
100.322689759475
100.322776360782
100.322946214036
100.323006421001
100.323105398424
100.323114630605
100.323031944504
100.322918990175
100.322663684929
100.322518886778
100.322314029204
100.32103303388
100.320743264624
100.320346608755
100.320244648235
100.320098059594
100.319954728399
100.320047427689
100.320122991313
100.320164264772
100.320391822977
100.320598877892
100.320717982794
100.321105634722
100.321359576245
100.321602674535
100.321775593166
100.322064077655
100.322138592993
100.322364041897
100.322372333805
100.322170645482
100.322015364254
100.321608775681
100.321337047288
100.319775256959
100.319339129235
100.31884474734
100.318175905964
100.318153039503
100.317949100177
100.317693486946
100.317902475616
100.318030946295
100.318069398419
100.318419615698
100.31872756927
100.318757450147
100.319406333439
100.319830039771
100.320183357039
100.320540701748
100.321091038769
100.321069196046
100.321546285366
100.32151130996
100.321021676115
100.320916200887
100.32024434111
100.318337540792
100.31727237804
100.31661738514
100.315950890653
100.314761400897
100.314924923398
100.314685036889
100.314165568775
100.314722922364
100.314932051267
100.314810860923
100.315496566648
100.315885025636
100.315716254401
100.316881750461
100.317383128145
100.317886857053
100.318798146511
100.319841370427
100.319533258866
100.320502603856
100.320442916108
100.31933101078
100.319539068741
100.318390051174
100.315602090502
100.311751748166
100.311564440018
100.310648640295
100.308394097791
100.309025373253
100.308823783948
100.307704985405
100.309267632241
100.309626543506
100.308854055702
100.310309505055
100.31069327024
100.310098955838
100.312159925398
100.31274934487
100.312680708031
100.316320216406
100.318706535521
100.317358480982
100.319467367359
100.319372752958
100.317004696547
100.315295107793
100.310249495197
100.304441251449
100.302590843338
100.304824455108
100.30344822779
100.299225918227
100.300651324721
100.300659008067
100.298515430434
100.301597690503
100.302293902441
100.300501655214
100.303161268115
100.303452380236
100.301880816516
100.305771836656
100.306750758952
100.30396041329
100.305394153268
100.31091036357
100.315710612462
100.311455051697
100.310145179099
100.309987402863
100.311092247634
100.325640498154
100.32638503114
100.323720331571
100.317149332693
100.316517021822
100.313513654435
100.3094339577
100.31044859648
100.310632871944
100.309283762588
100.311483423628
100.312476247455
100.312452398919
100.314645273498
100.314655805338
100.313427182879
100.316765469736
100.319027991234
100.319013593382
100.324840878306
100.32708650749
100.325776778855
100.331192633188
100.331066364827
100.370883061418
100.36681789233
100.361987601116
100.359801364249
100.352750999619
100.347971123098
100.342911504708
100.344627398105
100.339333919085
100.341094834063
100.341949452742
100.352735012563
100.373189882513
100.376073422552
100.357391486909
100.340946563779
100.338407627575
100.386994389623
100.42367532225
100.406128750625
100.41052656336
100.420941562487
100.409103729891
100.393285276941
100.347600840464
100.346828250245
100.345063621964
100.350260733465
100.347220112156
100.350858743008
100.354752435356
100.360897797118
100.362606212723
100.366642955692
100.370796479137
100.4128325395
100.413180962002
100.428629582601
100.41697765563
100.407480626464
100.402235960514
100.397338219871
100.403703385433
100.38411058222
100.378208841272
100.393035689674
100.381385332545
100.390156826138
100.393880164863
100.398691662252
100.409909173681
100.443020597929
100.441598329047
100.447240133183
100.45702515522
100.43832288444
100.437998658307
100.435514247676
100.398985116189
100.386375970715
100.404487481001
100.438341649765
100.457959459673
100.471675766023
100.47756646977
100.480649444467
100.484081314707
100.485746503306
100.486214020655
100.486285100458
100.486212841178
100.486116575188
100.486086376588
100.486177708996
100.486375651447
100.486720746342
100.487267822474
100.487912776569
100.488239079036
100.488186602708
100.487630968862
100.487061247356
100.487468086874
100.489243268375
100.496188250407
100.508272918965
100.53028978777
100.522428248036
100.474840809739
100.429635128353
100.381633502941
100.355125905074
100.372271582318
100.37266221341
100.370678782854
100.370728760643
100.3717085751
100.37278740316
100.373943053365
100.375321594801
100.376876395654
100.378406312648
100.379689138937
100.380578032987
100.38099637333
100.380584374343
100.380022638445
100.379254027809
100.378269738434
100.377050815397
100.375543288672
100.373756303014
100.371815052638
100.369888130705
100.368168555997
100.366742587125
100.365632106059
100.36479539736
100.364209430868
100.363913149239
100.363957865798
100.36437258251
100.365207394639
100.366523753576
100.368251122526
100.370027691973
100.371379638137
100.371910523966
100.371897604855
100.371955944376
100.371931985199
100.37194155106
100.371956135012
100.371966409141
100.371987561795
100.372022475743
100.372155275022
100.372271137185
100.37232724108
100.372377640675
100.372346953633
100.372151999961
100.37206101496
100.372032357212
100.372006003548
100.372125508981
100.372074381795
100.371959698506
100.37194404474
100.371927313305
100.371907328798
100.371912752104
100.371886695215
100.371887278505
100.371905228694
100.371866414518
100.371738485856
100.371803080573
100.371859041978
100.37185470888
100.371851729823
100.371868332148
100.371891547006
100.371897287052
100.371889438764
100.372003654989
100.371833700515
100.371875946946
100.371906539134
100.371814061634
100.371776810623
100.371836702808
100.371837629939
100.371805875359
100.371797931694
100.371792849779
100.371788151114
100.371710557844
100.371695350407
100.371387377211
100.370754538328
100.371364448046
100.371670416686
100.371656711944
100.371725922587
100.371727895738
100.371744357412
100.371757499717
100.371792020279
100.371745780421
100.371809677683
100.371841239004
100.371827646151
100.371652744041
100.37162300812
100.37166365836
100.371616054408
100.371546589397
100.371634868711
100.371569714331
100.371667792493
100.371739020686
100.371760078275
100.371712934709
100.371726031236
100.371688827061
100.371689073992
100.371670008128
100.371667830438
100.371591737815
100.3715980126
100.371311375325
100.370540153705
100.37129269546
100.371568342099
100.371556972754
100.371619442492
100.37161915375
100.37161979158
100.371665049505
100.371667144625
100.371646431774
100.371709922387
100.37167795826
100.371528016575
100.371542528049
100.371627672916
100.371531307312
100.371587155337
100.371533610425
100.371645116419
100.37158907088
100.371620842893
100.371625000866
100.371570351299
100.371598046782
100.371574608617
100.371561269131
100.371516150718
100.371507999004
100.371256773223
100.370519918971
100.371286038323
100.371505184459
100.371502124666
100.371528298653
100.371548753735
100.37154881142
100.37157103376
100.371564938053
100.371520641258
100.371541381665
100.371502736604
100.371518072203
100.371523450847
100.371316882238
100.371212155032
100.371159541571
100.371313524999
100.371229965126
100.371454887657
100.371487334371
100.371476218202
100.371493776734
100.371543250598
100.371524938865
100.37152598675
100.371504742882
100.371489988283
100.371490854835
100.371303240109
100.370503577412
100.371416455913
100.371489598699
100.371492179901
100.371482811317
100.371504357146
100.371479500941
100.371538613494
100.37152507914
100.371440518022
100.37143229036
100.371395767289
100.371266001696
100.371245925798
100.371411478183
100.371441779551
100.371464553405
100.371436236422
100.371386765323
100.371239936551
100.371089272653
100.370648357511
100.370313634767
100.370699902365
100.370647026868
100.371094536295
100.370962946939
100.371243493131
100.371393712564
100.371437612116
100.371503350986
100.371512060801
100.371477033242
100.371446016405
100.371501076185
100.371516344675
100.371473367098
100.371487127509
100.371463602509
100.371230315625
100.370164609444
100.368493709478
100.370491465908
100.371373636697
100.371460994718
100.371487490619
100.37148282868
100.371510523533
100.371502101365
100.371453571819
100.371531709432
100.371542889462
100.371429098371
100.371440434749
100.371378548888
100.371228168058
100.37101774127
100.37130762822
100.371409565808
100.371475290193
100.37146243992
100.371396932756
100.371218829806
100.370914137927
100.370485022559
100.370649398459
100.371096016942
100.370978034181
100.371281782488
100.371433136939
100.37151508349
100.371486488517
100.371587403151
100.371535906417
100.371472192678
100.371449002342
100.371508099674
100.371467525431
100.37148663433
100.371461895066
100.371425660274
100.370665698221
100.368749374099
100.370995552778
100.371507027293
100.371499629763
100.371492721069
100.371537625614
100.371541100732
100.371514732728
100.371522128086
100.371487766753
100.371241753003
100.370436674498
100.368745841144
100.367068206852
100.36950799672
100.370870474048
100.371367730237
100.371520507568
100.371544458437
100.371534509177
100.371522706709
100.371573915045
100.371642885317
100.371544555823
100.371564901525
100.371490749026
100.371337559988
100.371106690273
100.371423896815
100.371557042391
100.371598626639
100.371658492025
100.371634455131
100.371455085154
100.371165583244
100.370680661218
100.371255877997
100.371431784453
100.371701613637
100.371609312227
100.371745928526
100.371751820559
100.371644584312
100.371724824456
100.371692368324
100.371572299022
100.371513022162
100.371573026081
100.371600284957
100.371542482712
100.371540324028
100.371454555662
100.371130334331
100.369908200272
100.368029942166
100.370690986068
100.371432675328
100.371505180581
100.371553563551
100.371552910533
100.371605870271
100.371625470759
100.371628585763
100.371545843126
100.371760616274
100.37177023432
100.371774683636
100.371807488378
100.37168554113
100.371396017013
100.370826961389
100.371476209837
100.371590544225
100.371872938858
100.371792558733
100.371890449178
100.371875863249
100.371714162754
100.371788467906
100.371622379926
100.371618110489
100.371550816445
100.371546476834
100.371500914615
100.371424879884
100.371174515625
100.370292435398
100.368363825932
100.367206857214
100.369615569698
100.370944499951
100.371355800616
100.371458195079
100.371523452145
100.371527951532
100.371628564827
100.371561543694
100.371817017048
100.371864245414
100.371908332408
100.37200351689
100.371961221324
100.371655535483
100.37110126907
100.371732382297
100.372068135638
100.372082806548
100.372099488744
100.372087557704
100.372003607428
100.371842733316
100.371858567165
100.371662427449
100.371633856564
100.371562756413
100.371527875739
100.37148789947
100.371422468668
100.371246156638
100.370155665881
100.368593121365
100.371019305625
100.371476142034
100.371466870449
100.371502615994
100.371552400663
100.371630159987
100.371595923065
100.371908833587
100.371887067371
100.371922124348
100.371776305316
100.37206163053
100.372190338795
100.372209180197
100.37193605655
100.371273750279
100.371832612401
100.372143204957
100.372160614946
100.372034934548
100.371983327585
100.372160651557
100.372124599348
100.371808360526
100.371237432724
100.37175776666
100.371883925551
100.372037663651
100.372119890903
100.372119211826
100.372046960106
100.37183244502
100.371856298685
100.371929695892
100.371692905222
100.371563545086
100.371623617377
100.371654680679
100.371550377786
100.371522261633
100.371443936675
100.371383379057
100.370901887377
100.36914255068
100.36810744638
100.370653858126
100.371427777348
100.371457596587
100.371499962168
100.371559918011
100.371594392246
100.371664286226
100.37164746095
100.371683970168
100.37165981743
100.371909543513
100.371832205782
100.371901663631
100.37178930894
100.371990808166
100.372061931012
100.372037139
100.371803970962
100.371143934617
100.371636677477
100.371920004619
100.371974170383
100.371913482195
100.37187555504
100.371955692665
100.371854402183
100.371566952946
100.370982939198
100.371500318032
100.371637194517
100.371783035125
100.371885183203
100.3719266214
100.37191029547
100.37180149544
100.371821679105
100.371875685359
100.371715314631
100.371640438825
100.371658457994
100.371618120793
100.371584261622
100.371547168451
100.371453819954
100.371271673087
100.370522410415
100.368677366909
100.368004927222
100.370255259116
100.371248164388
100.371467183875
100.371582641234
100.37161501364
100.371623531092
100.371715510751
100.371730800571
100.371656863186
100.371659329857
100.371623925037
100.371658162442
100.371514299175
100.370854930801
100.369895205815
100.371446217897
100.371668770086
100.371677957722
100.371691932502
100.371688717581
100.37176533372
100.371697355711
100.371886425927
100.37180962492
100.371875256259
100.371780321183
100.371880311247
100.371890965977
100.371828363398
100.371546884813
100.371686237471
100.371800335956
100.371797482009
100.371861418305
100.371863384852
100.371767606624
100.371535899657
100.371086278058
100.371348470159
100.371636453792
100.371748418753
100.371759386914
100.371767424925
100.371809321229
100.371707098725
100.371728676963
100.3717881648
100.371707511255
100.371729728261
100.371707919227
100.371718344049
100.371503123681
100.370584125312
100.370267373129
100.371497672749
100.371733501038
100.37175659487
100.371760745223
100.371743496153
100.371809374369
100.371709405822
100.371870565357
100.371828497581
100.371800300681
100.371799641409
100.371683823064
100.371434300812
100.371001600698
100.371295735114
100.371564561254
100.37169415781
100.371723292292
100.371776644448
100.371758808044
100.371745007195
100.371753425516
100.371801087705
100.371757638726
100.371774237512
100.371775881655
100.371807095313
100.371632587559
100.370982322912
100.370988948166
100.371734495319
100.371798791221
100.371793932305
100.371783920476
100.371780520793
100.371761867554
100.371784923457
100.371740433567
100.371810734705
100.37175475867
100.371734351876
100.371603769207
100.37139017257
100.370987511297
100.371312804713
100.371548818591
100.371677115196
100.37170016238
100.371750532479
100.371780761877
100.371730657048
100.371709538049
100.371576149702
100.371388920214
100.371068270691
100.371326989811
100.371558469943
100.371683673515
100.371701193922
100.371750436682
100.371738972117
100.371766483859
100.371791246515
100.371776185976
100.371795380597
100.37180981071
100.371817864315
100.371832826426
100.371896011565
100.371433494529
100.371616266447
100.371892505849
100.371860659523
100.371860819551
100.37183454285
100.371809679124
100.371783310972
100.371785683164
100.371743175926
100.371767683343
100.371720421147
100.37169466845
100.371592431123
100.371482170891
100.371177604034
100.371427168502
100.371589136166
100.371686434167
100.371708591764
100.371761179843
100.37177880606
100.371725943095
100.371702316855
100.371647505297
100.371595152913
100.371398413343
100.371559532434
100.371652183727
100.371720484568
100.371738000894
100.371783751939
100.371757579792
100.371782015732
100.371792159894
100.37180014007
100.371832794662
100.371851726073
100.371878332996
100.37191571684
100.371951339636
100.371885757884
100.372028669475
100.371265632011
100.369633810829
100.370275591981
100.368355821006
100.369210135162
100.367369032
100.368443002714
100.366822561396
100.365866366819
100.366671759756
100.365789785801
100.366820146967
100.365913028236
100.365303167372
100.366265483303
100.36563792085
100.365287177529
100.366556567689
100.366391058423
100.366421250754
100.36843520665
100.368654656316
100.368883575908
100.369202856063
100.369567465535
100.370971567697
100.37068851556
100.371107238968
100.371485472925
100.371715256837
100.372038414772
100.371980937368
100.372033788223
100.372040947122
100.372069012164
100.372077756734
100.372112707688
100.372142329821
100.372271184667
100.372404410439
100.372566900906
100.372661973613
100.372677750497
100.372532402734
100.372477575847
100.372303690901
100.372063044213
100.371966682121
100.372030322128
100.372089561025
100.372315827113
100.37210480086
100.371991264396
100.371917445896
100.371753637139
100.371513956474
100.37112836957
100.370800976303
100.370971403065
100.371077708378
100.370961844885
100.370810587707
100.370996414689
100.371049776972
100.371215918389
100.371308555713
100.37128013146
100.371381764896
100.371573654519
100.371581376864
100.371707828414
100.371649955019
100.371805396011
100.371673740898
100.371726374063
100.371773692526
100.371820529119
100.371894165466
100.371939237538
100.371982474747
100.372003547128
100.372017378596
100.372032392058
100.372040203521
100.372112451469
100.372271574898
100.372422831438
100.372520297833
100.372539784761
100.372338478433
100.372158109757
100.371943970723
100.371953955415
100.371988847755
100.371946271172
100.371983435641
100.372181228521
100.37222951839
100.372373227875
100.372505007007
100.37266732732
100.37278728204
100.372808337072
100.372756691477
100.37257943653
100.372361538822
100.372218291637
100.37183539565
100.371411941564
100.37096716951
100.371109089101
100.37123184087
100.371176171721
100.371045039702
100.370969574578
100.370198566369
100.369729266428
100.369568455245
100.369506713022
100.369355446855
100.369580708207
100.369893700141
100.37006910497
100.370119697577
100.369778887223
100.370167023747
100.370467235464
100.370563496134
100.370373459866
100.371608043971
100.371794844531
100.371752964027
100.371829660956
100.371843161232
100.371935130619
100.371976450341
100.37198476265
100.37199454572
100.371979284936
100.37202628919
100.372042911373
100.372069055588
100.372091074627
100.372119285933
100.372128128683
100.372192415583
100.372248881715
100.372303871979
100.372454995808
100.372613232923
100.372803972233
100.372926428728
100.372946530554
100.372926205888
100.372751157566
100.372521387983
100.37214666403
100.371711537494
100.371244992995
100.371100956996
100.370369607315
100.369996673559
100.369876431528
100.369778579454
100.369679666866
100.3694374211
100.369497224223
100.369844463397
100.370107997909
100.370148434809
100.370255180156
100.369943781486
100.370347865308
100.370604094256
100.37036950727
100.371098330514
100.371546958937
100.372000738288
100.372090103242
100.372072061654
100.372031490736
100.372097828661
100.372138733055
100.372174992668
100.372238968308
100.372259099845
100.372315160371
100.372361359937
100.372548136238
100.372733191565
100.372921850208
100.373051473666
100.373081510061
100.373055547677
100.372882389974
100.372635934447
100.372271589701
100.371836312788
100.371340033
100.370635344011
100.370319826914
100.370191621931
100.369808189344
100.369543193918
100.369431950445
100.369269382044
100.36906800205
100.369293551415
100.369578839241
100.369306841337
100.369174103406
100.368964242283
100.368701219483
100.368456733407
100.368274061341
100.368124961372
100.368066884016
100.368306161566
100.368565539826
100.368756154746
100.368996969323
100.369170620411
100.368797362906
100.368897129566
100.369203052862
100.369274817684
100.370160386331
100.370831682133
100.371605436721
100.371955040442
100.371989389849
100.372048572313
100.37206050278
100.372188195033
100.372077624854
100.372111519852
100.372137574253
100.37218843611
100.372237130127
100.372294282636
100.372310347768
100.37238071409
100.372457277756
100.372678315612
100.372875038634
100.373058398002
100.373204867746
100.373233077977
100.373215505264
100.373035550491
100.372780751918
100.372399440666
100.371969824977
100.371478135998
100.370770324274
100.370463660941
100.370138493229
100.369919474048
100.369865303733
100.369630835955
100.369461492649
100.369762616489
100.369521542783
100.369292899521
100.369064020764
100.368744302366
100.368459155861
100.368009595316
100.368248442933
100.368635131371
100.36890828997
100.369031534637
100.369240432642
100.369216479095
100.369020757622
100.368225771124
100.368454636947
100.368748963259
100.368865780412
100.369108074081
100.368665882882
100.368126767894
100.367432069485
100.366777060907
100.365419836588
100.365522310821
100.366144103157
100.366827044045
100.367369213434
100.367892673656
100.368378729427
100.369478745941
100.36678545692
100.366386938261
100.366177657159
100.366032668437
100.365725386003
100.365374614507
100.36426865562
100.363416438782
100.360688649904
100.364479520249
100.36563291146
100.36480697147
100.36346914253
100.362649800176
100.361270074279
100.360019059403
100.360273975087
100.361101324612
100.362907250556
100.362847425657
100.363534093042
100.364595792482
100.36567234591
100.366365918211
100.367105757456
100.367703472931
100.368315251359
100.368791333125
100.369229295954
100.368805370528
100.369777165632
100.367385437743
100.372648720633
100.37274322117
100.372543842291
100.372190170059
100.371647504616
100.370832539798
100.369559347519
100.367953261147
100.366938794351
100.365902041837
100.368078056849
100.368423114318
100.366366518388
100.363718446858
100.362016815017
100.360536053089
100.353759948911
100.356147715665
100.356105328495
100.357776650758
100.359596197405
100.360741994534
100.365694677645
100.367931311125
100.370116382535
100.370109304201
100.370405867681
100.36895205751
100.369330846669
100.369711064232
100.370209214486
100.370563636879
100.37115037931
100.372004907146
100.372197233651
100.37213599331
100.372087111398
100.372170387821
100.372217507157
100.372291431424
100.372357993239
100.372364975802
100.372464414769
100.372540016475
100.372754217381
100.372975185727
100.373171096432
100.373326309201
100.373356050512
100.373344445775
100.37313687427
100.37288149181
100.372462392408
100.372017785701
100.371554014476
100.370868865245
100.370585638723
100.370260596165
100.370078495887
100.370042922228
100.369931151725
100.370192083205
100.370007894664
100.370073381272
100.370226215112
100.37038169463
100.370189378214
100.370028960435
100.369667025458
100.369793900429
100.370006110641
100.369833413143
100.369584689923
100.369227147642
100.369691557981
100.36931215232
100.368966764139
100.368631683823
100.368259049501
100.367849399295
100.367483391004
100.366801831734
100.36712988734
100.367628828193
100.368031338324
100.368278878479
100.36860050179
100.368935245495
100.368917865991
100.36863965978
100.368070173347
100.367591934327
100.367441808745
100.36802179393
100.368139867533
100.369769029219
100.370742920156
100.37106655334
100.371327842264
100.372290079214
100.37234552238
100.372169859217
100.372157103854
100.372253400358
100.372331454643
100.372396767643
100.372416350362
100.372542508921
100.372608597669
100.372803967415
100.373092172222
100.373308780706
100.373452813442
100.373478260043
100.373469507422
100.373251569637
100.372990735263
100.372576998823
100.372161196543
100.371669829672
100.371038288535