/*--------------------------------*- C++ -*----------------------------------*\
| =========                 |                                                 |
| \\      /  F ield         | OpenFOAM: The Open Source CFD Toolbox           |
|  \\    /   O peration     | Version:  v1612+                                |
|   \\  /    A nd           | Web:      www.OpenFOAM.com                      |
|    \\/     M anipulation  |                                                 |
\*---------------------------------------------------------------------------*/
FoamFile
{
    version     2.0;
    format      ascii;
    class       volScalarField;
    location    "0.2";
    object      p;
}
// * * * * * * * * * * * * * * * * * * * * * * * * * * * * * * * * * * * * * //

dimensions      [0 2 -2 0 0 0 0];

internalField   nonuniform List<scalar> 
80571
(
100.265909587086
100.265492575327
100.264951961265
100.267842450987
100.272301619532
100.272329552258
100.272726051078
100.273424916226
100.271254388305
100.271309199164
100.271500954812
100.27138420471
100.271494664424
100.271671223926
100.271423576529
100.27127784236
100.273442160576
100.272716302299
100.27231719489
100.272293123453
100.273000353365
100.273546335145
100.271269181276
100.271582526497
100.271842147519
100.271154264211
100.271154228299
100.271842314192
100.271582583209
100.271269431673
100.273550345387
100.273003383183
100.272294405763
100.272317382622
100.272715221157
100.273439905947
100.271278989228
100.271424492204
100.271669863903
100.271495245091
100.271385228254
100.271501813644
100.271311998911
100.271256593455
100.273423614035
100.272725129949
100.27232961718
100.272303135741
100.273013160075
100.273562765965
100.271273921082
100.271588327069
100.271851284628
100.271163449215
100.27116389961
100.271852377543
100.271589065002
100.271273835086
100.273559359199
100.273010380645
100.268256935438
100.268527390243
100.267880914982
100.267587016005
100.267948944608
100.268223115829
100.268223069944
100.267948474519
100.267585696615
100.267880406524
100.268528175815
100.268256896088
100.267843165403
100.268223919919
100.268942824647
100.269341303583
100.269393443295
100.269522670343
100.269147570782
100.269520916476
100.269584062593
100.269177444987
100.2694878869
100.269383062137
100.269346177018
100.268938236546
100.26823202575
100.267836117024
100.268252599301
100.268520341561
100.267873324079
100.267578536586
100.267940212395
100.268214991611
100.268215201436
100.267940832185
100.267579005675
100.267873702583
100.268520679491
100.268253381109
100.267835552436
100.268231993908
100.268937988446
100.269346629942
100.269382381141
100.269484863758
100.269175780005
100.269582093489
100.269518861301
100.269146351933
100.269520057617
100.269392722582
100.26934190641
100.268942391447
100.26822348585
100.265452946863
100.266479890785
100.264800220194
100.265444069454
100.265761721039
100.265505465405
100.266060913453
100.264167337471
100.264141486488
100.265162659206
100.265162816644
100.264140096502
100.264164701272
100.266059895992
100.265508092013
100.265583304272
100.264952527844
100.265452107718
100.266479953456
100.266646377961
100.267885247323
100.268096963229
100.26698665858
100.266887661992
100.266837904299
100.26689465544
100.268015672497
100.267848450697
100.266637412103
100.266475043106
100.265452396002
100.264951083695
100.265576451703
100.26549880235
100.266052349834
100.264157729417
100.264132593159
100.265155299507
100.265155455288
100.264133006933
100.264158487605
100.266052943954
100.265498526111
100.2655773739
100.264950444559
100.265453304214
100.266474909335
100.266639065117
100.26784814675
100.268008685492
100.266890157988
100.266835715242
100.26688566303
100.266981216819
100.268089189735
100.267884649237
100.266649789723
100.264790036278
100.256731941578
100.257062775621
100.257115267858
100.257308454211
100.257573146687
100.266460848968
100.265137038427
100.265304296233
100.265303601429
100.265134496849
100.266462178772
100.265762200418
100.26543819627
100.265491610133
100.264801126326
100.264783570412
100.264904864956
100.269292855241
100.266550230713
100.266480223731
100.269206282194
100.264899130095
100.264784790623
100.264814869393
100.265416480928
100.265488674824
100.265907488955
100.266752939417
100.267494537089
100.267364656817
100.267902504183
100.270145896693
100.270177103014
100.268766065947
100.267373380002
100.266386124644
100.265773761529
100.265488925897
100.265488952637
100.265773816953
100.266386133012
100.267373278071
100.268765988129
100.270615622425
100.270840487389
100.269333404059
100.267683762498
100.266469711873
100.265629452126
100.265126034981
100.264877719167
100.264877697284
100.265125977596
100.265629410157
100.266469730705
100.267683879793
100.269333815941
100.270839887579
100.27061511297
100.26867178266
100.268977900476
100.268795950913
100.268335208077
100.2681087193
100.267536833127
100.268317474517
100.268051142217
100.26654350546
100.263478425467
100.258156583299
100.256739961623
100.257061967175
100.257128765893
100.257320495154
100.257578013176
100.257578089842
100.257320649995
100.257128671775
100.257062614341
100.256740877984
100.256808769106
100.256796309177
100.255626020553
100.255490007591
100.255564004008
100.255424794286
100.255493703425
100.255555143753
100.255555008365
100.257573435717
100.257308225184
100.25711506287
100.257062148418
100.256730714673
100.256793224601
100.256806001837
100.255626482492
100.255487900833
100.255560619494
100.255438773424
100.255503673909
100.255561874433
100.255562013608
100.255504153787
100.255438479202
100.255561519737
100.255487538005
100.255627690347
100.256071917578
100.256074976874
100.255954090025
100.255994695168
100.255873397265
100.25591290275
100.255909315266
100.255909183625
100.255911855416
100.255493174725
100.255425078968
100.255563070086
100.255490245469
100.255624723827
100.256073183818
100.25607026771
100.255951612629
100.255994669798
100.25587923123
100.255916901595
100.255915330094
100.255915475903
100.255917713539
100.255879667087
100.255996285639
100.255952519335
100.255702883318
100.255749178009
100.255748558151
100.25570280977
100.255773885809
100.255713446247
100.255730631554
100.25571746326
100.255717040026
100.255729161007
100.255712228561
100.255872885706
100.255992880036
100.255953039384
100.255700041236
100.255745467416
100.255746276668
100.255700625015
100.255772342973
100.255715154176
100.255731663633
100.255720206942
100.255720608633
100.255732844328
100.255715922104
100.255775060292
100.254757439733
100.254690664732
100.254728250103
100.254726301475
100.254686839396
100.254757136311
100.254724689736
100.254738449821
100.254747299685
100.254746608328
100.254736419848
100.254722234685
100.254752415901
100.255770939682
100.255939959505
100.254872676213
100.254682347237
100.254721237297
100.254723335181
100.254687488944
100.254752114773
100.254724056171
100.254739896078
100.254750146529
100.254750690007
100.254741628941
100.254725787157
100.253505199948
100.253533208904
100.25347893486
100.253533993405
100.25353246474
100.253475974205
100.25352963217
100.253502750078
100.253507795739
100.253537094855
100.253536076723
100.253503850658
100.253498772126
100.253521420985
100.253470198091
100.253524253925
100.253525392737
100.253472605934
100.253525395421
100.253502288322
100.253508560684
100.253541135689
100.253541743101
100.253512254107
100.252187355654
100.252221293002
100.252244192039
100.252173757982
100.252258764299
100.252256472588
100.252171405289
100.252239781223
100.252215954036
100.252180702438
100.252242400623
100.25224121425
100.252173992338
100.252209205713
100.252228973876
100.252161239919
100.252242494335
100.252243787784
100.252162042562
100.252234426433
100.252213580867
100.252179554702
100.252248424312
100.252248306389
100.250657729227
100.250495165394
100.250619815533
100.250636238743
100.250496615373
100.250674109226
100.250668290913
100.250490008357
100.25063081872
100.25061244643
100.250487993366
100.250650292296
100.25065045624
100.250477217886
100.250599824893
100.250616204812
100.250473792862
100.250645798251
100.250648605152
100.250474528088
100.250620468527
100.25060413551
100.250481712563
100.250663050394
100.248366432413
100.248366093752
100.247918769082
100.248226565833
100.248238896457
100.247940844218
100.248374739957
100.248362233312
100.247922322251
100.248229264817
100.248221213671
100.247910056555
100.248359481384
100.248355134947
100.247892400545
100.248198020244
100.248208842752
100.247896435282
100.24833026867
100.248334524303
100.247898541613
100.248215056096
100.248208366947
100.247903315067
100.243003988176
100.244287464885
100.244288161902
100.243021750073
100.243844784181
100.243841162025
100.243067802656
100.244314155527
100.244281120649
100.243018760929
100.243828993094
100.243833606777
100.243018031317
100.24428505714
100.244275239246
100.24298576141
100.243799329714
100.243798365806
100.242977992435
100.244234225069
100.244240067444
100.242980619209
100.243808666452
100.243813918371
100.237233645019
100.235404672482
100.238301373859
100.238309685931
100.235430010515
100.237271658147
100.237254627127
100.235594237424
100.238424141697
100.238312755307
100.235406692472
100.237245795999
100.237262674524
100.235436690053
100.238314375902
100.238285428236
100.235368763523
100.237216254278
100.23720647159
100.235349958655
100.238250233625
100.238265241546
100.23537811971
100.237215846439
100.246130493876
100.246237812066
100.244420825487
100.246944525894
100.247018949135
100.24480530365
100.246206157247
100.246117626932
100.244560393607
100.246848526666
100.246973505034
100.244469749635
100.246212632249
100.246224701566
100.244833112832
100.247005321282
100.246900712318
100.24437762012
100.246233401208
100.246168956698
100.244460740459
100.24694641641
100.247001339407
100.244724349674
100.281425031868
100.2762537003
100.276660286158
100.281867069363
100.277715170232
100.277778091369
100.282016010795
100.276788559826
100.276344585082
100.281552117165
100.277565954608
100.277551567639
100.281523964763
100.276337740662
100.276748983407
100.281943870348
100.277703953845
100.277665894759
100.28183699979
100.276651010876
100.276239615979
100.281406848885
100.277476166898
100.277485592748
100.315390710963
100.332262986518
100.32108601626
100.331518601144
100.314284650303
100.331052379071
100.320866349457
100.332716048912
100.315326187696
100.315436231869
100.332891801295
100.321071252441
100.331241959443
100.331799454206
100.321421659923
100.332576625726
100.34911343226
100.34911419322
100.332470231783
100.315567749433
100.315650573493
100.362600276557
100.391801732419
100.378944851674
100.378951442934
100.387903559855
100.377543339509
100.365261542074
100.321266422029
100.331707538893
100.331157073663
100.314403940983
100.369147975206
100.389981958231
100.370587579328
100.370669921456
100.377495743034
100.387260865351
100.36438479198
100.320913755675
100.332730896421
100.349372765038
100.315301419953
100.315274055322
100.332682267849
100.320823937673
100.330991322855
100.314254164711
100.331485576639
100.32106291174
100.332257881095
100.315382045397
100.348995721307
100.348973308812
100.378872687714
100.387597768066
100.364987235635
100.377252160049
100.37034677756
100.370582721062
100.377426058815
100.364380343768
100.387235923346
100.378026812316
100.378086802796
100.387323503705
100.377567907547
100.37075908331
100.370631220015
100.377550978007
100.387895712496
100.405133156188
100.407951334964
100.413514496782
100.413512170167
100.407948384035
100.399939141254
100.399935991506
100.414704136682
100.420736358338
100.419724401722
100.419732062361
100.419177867468
100.417739507229
100.415765580611
100.405141532259
100.408751520327
100.407944461699
100.397580890508
100.417252868152
100.41895988074
100.417799568005
100.416348004998
100.416371984201
100.417752884247
100.408508907516
100.397414428014
100.40792234237
100.417045436528
100.4189045025
100.42202380776
100.42250564131
100.422376585788
100.422907684115
100.423153058379
100.423197239193
100.423223023249
100.423191114437
100.423105833299
100.422958634167
100.422703063843
100.422252144619
100.421457954488
100.420191365746
100.418507350856
100.416731846569
100.415526496032
100.41596333072
100.419163798634
100.426930520542
100.438342021751
100.458567176802
100.451774825101
100.405835227952
100.36281696314
100.317336555891
100.292789046638
100.307776583158
100.30848555508
100.30624976808
100.305943658684
100.30676757615
100.307770362995
100.308861532173
100.310181837532
100.311641660301
100.312967474123
100.313942110327
100.31453506113
100.314786846913
100.314171122297
100.313342777108
100.312289208155
100.310935911068
100.30920604484
100.307177057317
100.305113128678
100.303521767541
100.302722620476
100.302749109615
100.303203751429
100.303501750075
100.303605719403
100.303723080059
100.303813384465
100.303821470373
100.303740223377
100.303566525928
100.303330369735
100.303078474639
100.303020477687
100.303348123921
100.303684824844
100.303771401775
100.303786996761
100.303806669452
100.303836769395
100.303849160594
100.303898743899
100.303907021967
100.303961576266
100.303976359678
100.303899034768
100.303763357296
100.303760529312
100.303774563572
100.303943867878
100.303914351269
100.303892757658
100.303962236918
100.303950928826
100.30391512067
100.303878805783
100.303877320026
100.303893293819
100.303829514142
100.303829843821
100.30384342903
100.303800030661
100.303791176349
100.303698607136
100.303446524654
100.303743537145
100.303805579442
100.303813813558
100.303851640573
100.303843569067
100.303900905003
100.30389207496
100.303922624479
100.303952932173
100.303961747036
100.303971323586
100.303914016864
100.303956083975
100.304032449881
100.30401141384
100.303994162059
100.303959583952
100.303928670194
100.303907683458
100.303911705093
100.303859985193
100.303865403039
100.303830887657
100.303824709574
100.303756128985
100.303564362065
100.303813819303
100.303837784046
100.303849361894
100.303881793859
100.30388038872
100.303928004639
100.303932761162
100.30395210601
100.303955185609
100.303966309102
100.304057687274
100.30409524398
100.304081214012
100.303912076558
100.303702121311
100.303990056911
100.304030711853
100.30421104755
100.304298670879
100.304272468839
100.304141050711
100.304159129757
100.304097452184
100.303983453269
100.303967787788
100.303952666594
100.303903278043
100.30390113908
100.303870828921
100.303865912977
100.303821715348
100.303813398457
100.3035778844
100.303307782904
100.303674079577
100.303821169404
100.303847212172
100.303884714189
100.30389386667
100.303921255959
100.303933745801
100.303967857013
100.303973999156
100.303995807675
100.304018522432
100.304155159473
100.304245619388
100.304318048763
100.304284869595
100.304284624447
100.304224785821
100.304219551798
100.30409945845
100.304054166299
100.304017392421
100.303980494525
100.30394438481
100.303927127002
100.303938764045
100.303908307196
100.303875903851
100.303855323477
100.303692604315
100.3034889451
100.303774519328
100.303886084595
100.303905290596
100.303931006464
100.303961809551
100.303993370027
100.30401960312
100.304076020321
100.304126613442
100.304276553082
100.304352893758
100.304347893568
100.304203416645
100.303956870663
100.304185021211
100.304190775298
100.304259278905
100.304379349121
100.304352272455
100.304311140698
100.304319983452
100.304264658687
100.304147701176
100.304114773451
100.304062435126
100.304034582877
100.30401066216
100.303969272721
100.303940122889
100.303928956042
100.303805990622
100.303658859373
100.303904064265
100.303959621545
100.303978786339
100.304029718141
100.30407128187
100.304078733321
100.304135449839
100.304151947917
100.304187353294
100.304287057969
100.304340352649
100.304397189032
100.304365807287
100.304417850502
100.304353331785
100.304325800844
100.304238850367
100.304195822819
100.304167800889
100.304117424301
100.304099298024
100.304067430006
100.304057638886
100.304016389676
100.303954710112
100.303955441357
100.30372340859
100.303612718836
100.303885822439
100.303989672321
100.30400813903
100.304054942928
100.304092092072
100.304110305739
100.304141450479
100.304167507984
100.304222044059
100.304269813748
100.304423360347
100.304498443884
100.304476700702
100.30435067053
100.304451222737
100.304542583603
100.304543302818
100.304533410495
100.304457676595
100.304321589237
100.304263260777
100.3042153802
100.304237128544
100.304190605328
100.304155627847
100.304171858834
100.304138985996
100.304105233799
100.30407568128
100.304038388097
100.303898670968
100.303813256224
100.304005662188
100.304068730584
100.304128485862
100.304160559199
100.304191552446
100.304224737173
100.304251455429
100.30431528833
100.304398229043
100.304387891616
100.304535406269
100.304601856093
100.304589367725
100.304555093534
100.30450428187
100.304539287237
100.304591226089
100.304600368041
100.304465695067
100.304569758687
100.304567469385
100.304581742603
100.304596774053
100.304545317331
100.304465376671
100.304405236344
100.304353340871
100.304295411541
100.304338404593
100.30426956301
100.304235289168
100.304263544182
100.304214618838
100.304187042766
100.304136520282
100.304114169144
100.304062353024
100.303856691252
100.30384485499
100.304042981253
100.304059893402
100.304176113272
100.304197647901
100.304240751146
100.304261476532
100.304297291596
100.304315080006
100.304381113794
100.304402171849
100.304452960476
100.304476750971
100.304575799088
100.304604096405
100.304605440998
100.304468760368
100.304607649565
100.304622750223
100.304653988601
100.304659740932
100.304600333753
100.304520946316
100.304472941335
100.304424963274
100.304430442265
100.304371272984
100.304345678498
100.304310577995
100.304288882142
100.30425420223
100.30422627799
100.304182334231
100.304006684089
100.303955499032
100.30386570853
100.303810435459
100.303737735681
100.30360908771
100.303530731592
100.303492156888
100.303354213801
100.303229304673
100.303154220633
100.303191080745
100.303083303621
100.303103616727
100.30334100845
100.303581903848
100.303763615326
100.303856626789
100.303866574126
100.303789214725
100.30367727139
100.303582839926
100.303364091036
100.302940723722
100.302754501305
100.303310000087
100.304664979534
100.306559989184
100.308519211049
100.310248978962
100.311653510293
100.312764175012
100.313643080454
100.314299936183
100.314784320981
100.315243907981
100.315550604981
100.315109118059
100.314514510786
100.31371048248
100.312673701868
100.311334732355
100.309613121883
100.307572414236
100.305444565815
100.30371170408
100.302733902151
100.30263527402
100.30308557029
100.303436725509
100.303559454259
100.303676342904
100.303775764776
100.30379774675
100.303725310274
100.303559166405
100.303329475499
100.303070349108
100.303006692099
100.303282288167
100.303623647823
100.303737270162
100.303755645091
100.303777476991
100.303810517391
100.303828935014
100.303872699723
100.303910569208
100.304006282728
100.304060438001
100.304005365949
100.303858896501
100.303790323736
100.303507445563
100.303023365101
100.302165553427
100.302261050038
100.302426041722
100.303026520383
100.303093622566
100.303014740223
100.30347717015
100.30349984095
100.3035105374
100.303137043121
100.303343405767
100.303462539502
100.302908782383
100.302228502882
100.302666428484
100.302891529031
100.303153225646
100.303646676106
100.303661555455
100.303499180047
100.303225817236
100.303065743589
100.303380700333
100.303696342814
100.303767440924
100.303904953608
100.303876501739
100.30390075964
100.303876260395
100.303854007019
100.303831689037
100.303812811354
100.303795955851
100.303787265103
100.303774865431
100.3037700273
100.303792835209
100.303822801229
100.303840296231
100.303886564703
100.303909189523
100.303980172597
100.304006335215
100.303931153796
100.303944882787
100.303991851979
100.303977596752
100.303881706758
100.303863185397
100.303828899997
100.303813546166
100.303818209586
100.303869724416
100.303906645196
100.304036948141
100.304106183122
100.30410698415
100.303886419989
100.30364839691
100.303836231948
100.303525888118
100.303083811781
100.302192761151
100.300893650655
100.299552576238
100.297625098582
100.29893248155
100.299636870369
100.299911906295
100.300351618906
100.300672786963
100.301008861235
100.301889805655
100.302101341597
100.30188196771
100.30146630355
100.301146747267
100.300898807218
100.300436926162
100.301568805546
100.302029568892
100.302857544423
100.303208406469
100.303622738711
100.303781785573
100.303794177746
100.303773524217
100.303761256848
100.303751233512
100.30374395047
100.303766732999
100.30380156871
100.303796433664
100.303812236851
100.303868402237
100.303900644444
100.304055847151
100.304107867555
100.304130277888
100.303934166252
100.303645251667
100.303003453344
100.302231263166
100.302226407417
100.300935260111
100.29951713253
100.29734915215
100.29475563043
100.291563442676
100.292402256595
100.293584809092
100.294556103512
100.295469518516
100.297093609927
100.297377069315
100.296778895792
100.296336324725
100.295335873721
100.294539303284
100.296675348567
100.297946058201
100.298016117414
100.301072002175
100.302872115135
100.303285396316
100.303550145079
100.30359287001
100.303724607989
100.303712876729
100.303735494106
100.303759632514
100.303755422602
100.303793024704
100.303807898797
100.303867986763
100.303898198914
100.304068947394
100.304120646796
100.304142805068
100.30392618879
100.303628337175
100.302947047991
100.302163505496
100.30085845909
100.299418450355
100.297041648034
100.29720803488
100.294530685812
100.291078707103
100.286990888037
100.281898409802
100.261229747927
100.271074907347
100.281639569967
100.283337489511
100.287683148744
100.288802747651
100.28365415035
100.287121599692
100.289580681153
100.291490711425
100.293294529453
100.294452186905
100.295735664315
100.295901483319
100.294954717801
100.293374135948
100.291964807403
100.290601394497
100.290040271035
100.292725585904
100.294969579159
100.295856321802
100.298582691101
100.30139378834
100.303203292074
100.303433629437
100.303623743445
100.303644411647
100.303754643077
100.303753023177
100.303733130208
100.303723439766
100.303717852856
100.303713374996
100.303707882288
100.303730587907
100.303730384874
100.303754898063
100.30379301231
100.303808599104
100.303867705156
100.303897413254
100.304068382723
100.304117696967
100.304148366588
100.303912145313
100.303642015947
100.302919901352
100.302155874454
100.300847946805
100.299391270321
100.297006979711
100.294235423241
100.290688097285
100.290657656211
100.28620416756
100.281044905659
100.256071678393
100.228087148037
100.166733906812
100.183329879523
100.188396094445
100.192298052322
100.192075099558
100.199829906725
100.196910275523
100.19366868005
100.196078761128
100.201280076797
100.2001787796
100.19710045323
100.207252193904
100.201817295872
100.202112281899
100.209954525237
100.203103064737
100.201843102769
100.209843041651
100.205178281112
100.198815766103
100.207757821925
100.204151509563
100.197259484936
100.205831476064
100.202589815975
100.195156063454
100.2060466932
100.207292846173
100.20473114234
100.20391252456
100.201902704617
100.200330494048
100.199860552276
100.200000894255
100.199953804413
100.200298201137
100.200573026017
100.200588122802
100.200247977402
100.200474890098
100.200656531703
100.200723685394
100.200509323596
100.200366199809
100.20077762258
100.200495119572
100.200346157977
100.200271273668
100.200501494131
100.20060138713
100.199876596254
100.199886553748
100.200558479375
100.200470686833
100.200235116463
100.200360440893
100.200499436861
100.200783940182
100.2003653536
100.200510128054
100.200723616455
100.200656956365
100.200476360495
100.20025081828
100.200590232158
100.200576048854
100.200300472709
100.199954242182
100.199997216645
100.199860841168
100.200333934887
100.201332142637
100.202337183193
100.20235364326
100.201323777702
100.201848415882
100.202749453754
100.202764409548
100.201866736006
100.201912818072
100.201687290855
100.201236985563
100.201861808714
100.202064811742
100.200727791677
100.201226564342
100.200981514441
100.201158643918
100.20160301724
100.200699301162
100.201374987023
100.201907912992
100.202050080358
100.202588022548
100.200730187026
100.201758633067
100.201173631886
100.201066285671
100.200643786646
100.201232428818
100.203195943376
100.201707104182
100.20046022246
100.201674387538
100.201655754957
100.20044196486
100.201218778537
100.200637434478
100.201056504273
100.20118053143
100.201758178796
100.200722932688
100.202589311836
100.202045758452
100.201902519266
100.20137201113
100.200692666521
100.201600763969
100.201157031156
100.200977571597
100.201223268498
100.200721165232
100.202064475186
100.201863326628
100.201237957414
100.201681600138
100.203734338772
100.203117576913
100.204007922682
100.201544578601
100.200102682448
100.204047591106
100.203189168136
100.202599697374
100.203259038831
100.201795940475
100.20274817737
100.200284831919
100.206039981764
100.205325280299
100.205640817756
100.202074429945
100.201238314282
100.201228893229
100.202065908886
100.20390592315
100.203740360325
100.203121162945
100.203264360125
100.202607419297
100.203189154798
100.203073505805
100.201103174712
100.202034569256
100.203174928077
100.204134678829
100.202404107216
100.202744494169
100.203549172422
100.204575350697
100.202070307756
100.201478011151
100.20203710905
100.202090672316
100.202053735512
100.201578870942
100.201891130258
100.202668090201
100.202661400503
100.201878850163
100.201561496438
100.20208101523
100.202035382076
100.20206236129
100.204585965571
100.203545784894
100.202739064087
100.202393305004
100.204143113607
100.203190260226
100.202040872806
100.201100418793
100.203085713941
100.202210455336
100.201056521082
100.201924759443
100.201457829747
100.2026265821
100.201067677967
100.200527977693
100.202828835588
100.203280992579
100.20355919915
100.202752858495
100.204108150513
100.202306029493
100.201624794215
100.204059924296
100.205424747076
100.205466819
100.203712085312
100.20487909017
100.201338711257
100.202218075121
100.204549141999
100.203805932206
100.206036511556
100.205078786452
100.205926779745
100.203782648039
100.200080142795
100.202100588639
100.200560405307
100.197186949627
100.190238844701
100.192182844517
100.18618096782
100.190869204319
100.180213567171
100.17419737018
100.177442047704
100.180352893154
100.160474692219
100.236415729369
100.258713197284
100.223754736382
100.25037940163
100.269667316323
100.277792973849
100.283785180158
100.283444917979
100.278852059349
100.27217951319
100.279678715806
100.283654665051
100.286492052329
100.2887446373
100.28673041133
100.290269754089
100.292114892957
100.293740107084
100.294811752752
100.294556178469
100.292829053472
100.29120473973
100.29073680944
100.292309086925
100.293494114929
100.292910110081
100.293608514475
100.291828332158
100.292422734822
100.290888191611
100.289744016372
100.289500356753
100.289878539831
100.291252575147
100.28895858406
100.289843114339
100.289700817361
100.292378042484
100.290860421497
100.292434898499
100.293120304041
100.294496540024
100.29556909985
100.297274682941
100.297072507649
100.296513044655
100.295669434089
100.294608317929
100.292934582794
100.2917718759
100.290575898262
100.291801025231
100.29090866582
100.290794806413
100.292328687598
100.291597398033
100.291911248828
100.290450184936
100.298050814396
100.297260119485
100.297259110071
100.296516168761
100.297784905131
100.297559455944
100.299529133656
100.300469939337
100.299424570066
100.29945000683
100.300103850048
100.296634855676
100.297407290926
100.297592141791
100.299361660081
100.29854556795
100.299980034096
100.298624545315
100.298959879499
100.298774478565
100.298279468842
100.298517431224
100.298085091028
100.297867522955
100.297565899008
100.296781938291
100.295626267265
100.294093333632
100.293759291826
100.295409699033
100.293986186485
100.292556617692
100.292993074864
100.290917145301
100.289579678638
100.289663895064
100.291778686488
100.295577595766
100.295768270816
100.294688840737
100.294113464443
100.293311707261
100.299006337509
100.300983111838
100.300578382778
100.300195360863
100.299957602938
100.299982914541
100.301922145174
100.301897627204
100.30208943418
100.301731979281
100.301110595191
100.301551543727
100.300855548437
100.301435359157
100.301169681119
100.30161308605
100.301600558546
100.301822280604
100.301730810538
100.300165642334
100.300909915753
100.300436609868
100.299549554438
100.300056304853
100.299981841338
100.300269967582
100.300083692581
100.29973221611
100.298837777604
100.300497836707
100.301582721628
100.303339435381
100.303801861874
100.304021610714
100.303956042901
100.303760016865
100.30353155797
100.303262496788
100.303174507957
100.30306582194
100.302851293625
100.3027949291
100.3028051248
100.302809821267
100.3028402438
100.302875631649
100.303078201269
100.303011047524
100.303265627834
100.303578396376
100.303565845358
100.303565767914
100.303707705098
100.303712212314
100.303734717136
100.303758640962
100.303795633641
100.303811902189
100.303866871437
100.303898520992
100.304053951955
100.3041026184
100.304134161776
100.30391617913
100.303662423481
100.302972510551
100.302211892282
100.300872779175
100.299432445265
100.297155239711
100.294489057588
100.291130713283
100.287096891282
100.282137840856
100.261550098198
100.256325859747
100.228323275002
100.166127541334
100.183115450433
100.188249544025
100.192235999841
100.192025145323
100.19964169379
100.200128945969
100.197114179452
100.207307051735
100.201789935234
100.202124143634
100.209924105655
100.203106243905
100.201845210228
100.209827299854
100.205174988364
100.19883172162
100.207726702801
100.204157910766
100.1972595461
100.205825967781
100.202598526718
100.195154392272
100.206031976414
100.205307154244
100.205689266991
100.205838970573
100.204752978704
100.207323344728
100.20154627195
100.204010894464
100.201943979968
100.204049148382
100.200112525581
100.201066384684
100.202206320375
100.20328027228
100.204033922647
100.203127698612
100.202437905496
100.201161593778
100.20139463165
100.204051887275