/*--------------------------------*- C++ -*----------------------------------*\
| =========                 |                                                 |
| \\      /  F ield         | OpenFOAM: The Open Source CFD Toolbox           |
|  \\    /   O peration     | Version:  v1612+                                |
|   \\  /    A nd           | Web:      www.OpenFOAM.com                      |
|    \\/     M anipulation  |                                                 |
\*---------------------------------------------------------------------------*/
FoamFile
{
    version     2.0;
    format      ascii;
    class       volScalarField;
    location    "1.7";
    object      p;
}
// * * * * * * * * * * * * * * * * * * * * * * * * * * * * * * * * * * * * * //

dimensions      [0 2 -2 0 0 0 0];

internalField   nonuniform List<scalar> 
80571
(
100.261054779401
100.26063822025
100.260097589214
100.262987923419
100.267447162758
100.267474372176
100.267870834693
100.268568803828
100.266396264019
100.266450841426
100.266641933881
100.266524476208
100.266634113539
100.266809938533
100.266561522665
100.266415158243
100.268578618555
100.267852292296
100.267452762918
100.267428082169
100.268134971234
100.268680573841
100.266403173257
100.266716458817
100.266976035837
100.266288207306
100.266288315967
100.266976658802
100.266717218066
100.266404368745
100.268685800518
100.268139441841
100.267430987832
100.267454833242
100.267853246366
100.26857852803
100.266418651513
100.266564839643
100.266811046817
100.266637202619
100.26652800339
100.266645258101
100.266456067478
100.266400930405
100.268569564587
100.267871771293
100.267476251674
100.26745025404
100.268160562748
100.268710502955
100.266421869069
100.266736318704
100.266999308441
100.2663114108
100.266311719567
100.266999955629
100.266736371045
100.266420861639
100.268705911321
100.268156380563
100.263403081202
100.263674122361
100.263028135151
100.262734546308
100.263096714286
100.263371048543
100.263371167868
100.26309670205
100.262733903878
100.263028583088
100.263676126113
100.263404498809
100.262990302462
100.263370612416
100.26408891182
100.264486969043
100.264538571956
100.264667005142
100.26429118797
100.264663712836
100.264726097691
100.26431855042
100.264628254101
100.26452269161
100.264484768081
100.264076064835
100.263369201304
100.262972709572
100.263388493365
100.263655601849
100.263008051954
100.262712931749
100.263074355699
100.263348966788
100.263349007827
100.26307450616
100.262712707867
100.263007449809
100.263654690107
100.263387781573
100.262970445652
100.263367288686
100.264073739877
100.264482984104
100.264519590799
100.264622769627
100.264314358594
100.264721574915
100.264659110623
100.26428745434
100.264661968445
100.264535494376
100.264485298372
100.26408637366
100.263368315235
100.260597923507
100.261624130929
100.259946418048
100.260592655321
100.260911450056
100.260652822409
100.261208722878
100.259315319968
100.259289538585
100.260310894056
100.26031122898
100.259288625206
100.259313367412
100.261208666355
100.260656664499
100.260731353909
100.260099910007
100.260599051703
100.261626464813
100.261792368335
100.263030582207
100.263241308337
100.262130363664
100.262030518865
100.261979981391
100.262035889071
100.26315635639
100.262988114393
100.261775962816
100.261612774336
100.260589408531
100.26008750762
100.260711926657
100.260633393305
100.261186449553
100.259291639377
100.259266427682
100.260288943518
100.260288918905
100.259266357037
100.259291699968
100.261186057322
100.26063186886
100.260711306985
100.260085076922
100.26058833083
100.261610340747
100.261775154427
100.2629851899
100.263146687418
100.262028733127
100.261975108911
100.262025847081
100.262122288077
100.263230896382
100.263027429441
100.261793273516
100.259933718288
100.25187667748
100.252211351484
100.252267410883
100.252462559389
100.252728619935
100.261611923648
100.260285693182
100.260453254178
100.260452771328
100.260283702769
100.261613892982
100.260913406176
100.260589020539
100.260639277206
100.259950286237
100.259930569315
100.260049602906
100.264436688448
100.261693315448
100.261622285913
100.264347671811
100.260040662616
100.259923559632
100.259950721813
100.26055002436
100.260625082798
100.261044336964
100.261889888663
100.262631933042
100.262501362316
100.263039315757
100.265282603393
100.265314358204
100.263904000943
100.262510726414
100.261523058908
100.260910281013
100.260625116361
100.260624889739
100.260909587771
100.261521872272
100.262509040451
100.263902016872
100.265751820756
100.265976956411
100.264470615429
100.262820722572
100.261606586616
100.260766356164
100.260263014864
100.260014925516
100.260015157734
100.260263739995
100.260767563888
100.261608268693
100.262822838135
100.264473260371
100.265978449527
100.265753320131
100.263809937503
100.264116618897
100.2639345819
100.263473257697
100.263246811854
100.262675019959
100.263456131393
100.263190464835
100.261682669151
100.258616329827
100.253293206936
100.251878131867
100.252195674765
100.252258460063
100.252447741931
100.252703678281
100.25270300406
100.252445765227
100.252254988322
100.252191725601
100.251873848137
100.251945532235
100.251937242441
100.250767156114
100.250637098787
100.250715544333
100.250580857163
100.250652018943
100.250715922335
100.25071674994
100.25272965219
100.252464374139
100.252270424717
100.25221520101
100.251880541836
100.251939445835
100.251948176056
100.25076917345
100.250624259104
100.25069129814
100.250564484189
100.250626369767
100.250681604524
100.250680664295
100.250623676969
100.250559546192
100.250686185684
100.250617048924
100.250762912147
100.251204133829
100.251216650461
100.251106093285
100.251152475165
100.251038959965
100.251081740387
100.251081587473
100.251082483144
100.251085421562
100.250654496648
100.250585502487
100.250720434678
100.250644054425
100.250773325864
100.251226623148
100.251214336512
100.251085121691
100.251119568602
100.250994879003
100.251027489653
100.251021838008
100.251020663551
100.251023300166
100.250988015598
100.251111053871
100.251074612286
100.250815842317
100.250876427767
100.250892733841
100.250860351792
100.250939179172
100.250890641742
100.250913143232
100.250905434227
100.250907200412
100.250918657952
100.250899565578
100.251045091488
100.251160264587
100.251116064281
100.25087417228
100.25090756833
100.250891791468
100.250830728963
100.250890554938
100.250818488358
100.250826492933
100.25080809755
100.250805695888
100.250820044746
100.250807940271
100.250877649912
100.249839138023
100.249786396726
100.24984929269
100.249873935129
100.249856939166
100.249936183013
100.249921941875
100.249944935018
100.249960155206
100.249963163414
100.249953134481
100.249935561318
100.249953650558
100.250950621303
100.251113611438
100.250065651937
100.249878017197
100.249896790439
100.249873035047
100.249809261328
100.249859533494
100.249806626789
100.24980552361
100.249807063664
100.249802663944
100.249795734073
100.249789838391
100.248527837427
100.248574476179
100.24854951995
100.248647836095
100.248686705427
100.248664111572
100.248735352999
100.24873328781
100.248747686059
100.24878836028
100.248793162939
100.248761209238
100.248753415666
100.248762250751
100.248696963601
100.248722227898
100.248685169774
100.248585282701
100.24860811947
100.248554002401
100.248530309568
100.248546168961
100.248538811186
100.248514750062
100.247106357013
100.247170899754
100.247230787626
100.247205458152
100.247364401509
100.24742328961
100.24739115871
100.247490393469
100.247495076844
100.247473814409
100.247552823453
100.247559842028
100.247494382388
100.247526461805
100.247531540958
100.247441267029
100.247478733094
100.247422975241
100.247260954633
100.247282879958
100.247212218856
100.247134340161
100.247168212032
100.247155949528
100.245429971059
100.245287908277
100.245453439791
100.245539410556
100.245466077454
100.245768971517
100.245857787049
100.245770924873
100.245956025738
100.245966189927
100.245857666235
100.24604229274
100.246052130222
100.245889511751
100.246014569522
100.24601765173
100.245846061569
100.245943013752
100.245858158515
100.245552507126
100.245620498027
100.245521125956
100.24533596676
100.245449320468
100.24295292264
100.242922343898
100.242508234054
100.242887447983
100.243013525662
100.242826747247
100.243460634932
100.243602827038
100.243310072485
100.243664730834
100.243684700042
100.243384229045
100.243848205602
100.243864080126
100.243429634389
100.24375427208
100.243754938741
100.243423388626
100.243731280879
100.243593394744
100.242960850805
100.243139604699
100.242995789949
100.242590269625
100.237380993739
100.238531316097
100.238477379052
100.237239293557
100.2382145323
100.238375943935
100.237829203952
100.239390291703
100.239633870798
100.238604155101
100.239449166899
100.239477357345
100.238663669298
100.23993104375
100.239953969152
100.238729600031
100.239577539731
100.239583524281
100.238781944486
100.239837283177
100.239592257848
100.238033305537
100.238590870686
100.238394716556
100.231474166915
100.229298888989
100.232042081195
100.231949638363
100.229048993466
100.231172610187
100.231412766887
100.230149168655
100.233492825834
100.23388395559
100.23135048589
100.23318699665
100.233208619621
100.231302316968
100.234142320491
100.234172761091
100.23139553388
100.233354129835
100.23339694082
100.231627219371
100.234192749471
100.23375964745
100.230410828256
100.231768679059
100.240413186894
100.240028886642
100.237906749008
100.240061930822
100.239904011261
100.237518267636
100.239539087205
100.2398089883
100.238726993503
100.241864036591
100.242993348555
100.241172778833
100.242619700507
100.242590273581
100.240726536506
100.242944446951
100.242974122576
100.240787407127
100.242804269505
100.242898604085
100.241565236485
100.243468254941
100.242626767664
100.239596319865
100.276270737645
100.270300277607
100.270026912813
100.274398479254
100.270047121064
100.269938068868
100.273964814468
100.269433491404
100.269563221855
100.275361817948
100.272515039825
100.27405103968
100.279047759432
100.273252681438
100.273437624808
100.278132944105
100.273653601149
100.273709582115
100.278284804502
100.27367009047
100.273568436225
100.279477764325
100.274620115642
100.273281392998
100.31163214418
100.327732648582
100.31571921057
100.325022584816
100.307529318697
100.323527676896
100.312930079033
100.324338701065
100.306907606471
100.306760301583
100.324001456458
100.3123732597
100.322550886963
100.323824200677
100.314702526746
100.326808115553
100.344976725513
100.346987345817
100.330676490614
100.313104549634
100.31082070751
100.357991563083
100.387048617027
100.374819484671
100.378010537306
100.389069331952
100.377369311713
100.365080994134
100.319896027452
100.330581396776
100.328261847394
100.31192286312
100.366751376364
100.388111381631
100.369975372224
100.367823933933
100.373453869788
100.380935114131
100.359633919651
100.316951353215
100.328327926906
100.343891738389
100.310836069087
100.310902197905
100.328456353572
100.317144469043
100.328486261528
100.312179652618
100.330822333716
100.320267774623
100.331110264973
100.313642120194
100.34754636365
100.345806656934
100.375701508628
100.38229100952
100.359504705732
100.371372645655
100.363681725571
100.363090435693
100.369343010477
100.355904500026
100.378505744868
100.36898416099
100.368835396236
100.378032207839
100.368546338903
100.362018304926
100.36241103244
100.370090666878
100.381157719881
100.398109284432
100.401974091368
100.408547586592
100.409273585529
100.406793886324
100.39895226593
100.395176810755
100.410296963706
100.415386774112
100.414059989574
100.414678246999
100.415268915012
100.415042783879
100.415738651274
100.406001331881
100.410540390943
100.405945321448
100.39749514619
100.417033342132
100.416073256009
100.416719249491
100.412469890965
100.412635002082
100.411090715984
100.402353817935
100.393525537182
100.405560875715
100.411734107028
100.413078133543
100.415731873615
100.416216475749
100.416164656059
100.416749032844
100.416988920032
100.416905226438
100.416816661074
100.416814836128
100.416854579797
100.416880855571
100.416922718239
100.416936853682
100.416875282788
100.416749481539
100.416628929162
100.416644673905
100.416816384617
100.417693225281
100.419446364749
100.424332022205
100.431887012958
100.448454553724
100.442093856032
100.397470264746
100.35550085921
100.310762013308
100.286620180251
100.301477800531
100.302175788748
100.300071765574
100.299866053936
100.300777312203
100.301854340406
100.30300230562
100.304358413097
100.305869492205
100.307322627258
100.308502717399
100.309295836221
100.309660281649
100.308996631169
100.308154723906
100.307143724036
100.305925638666
100.304410929089
100.302625664346
100.300779118792
100.299107491551
100.297785087199
100.296818541895
100.2961703522
100.295721029334
100.295390269056
100.295130822741
100.294929264508
100.294820681889
100.294869153086
100.295185992981
100.295841950793
100.296976556108
100.298659856254
100.300383139826
100.301039109904
100.301157435574
100.301149420529
100.301180283558
100.301169948438
100.301187717301
100.301223736922
100.301191633942
100.301181055035
100.301126049202
100.300984803522
100.300799743314
100.300853707081
100.30096031781
100.301132733896
100.301118114177
100.301024383998
100.301135463403
100.301183150033
100.301196902068
100.301189342332
100.301226648661
100.301235410254
100.301175349453
100.301194795612
100.301182734638
100.301162519091
100.301169180913
100.30102391988
100.300744699826
100.301122579808
100.301182890335
100.301177132772
100.301198532518
100.301185618806
100.30124062001
100.301203106935
100.301198721532
100.301192345245
100.3011575446
100.30121006654
100.301129844514
100.301208133108
100.301303775915
100.301300839066
100.301279774598
100.30120664154
100.301208530454
100.301223195917
100.301249269113
100.301206310096
100.301221713631
100.301199124066
100.301213458345
100.301092179076
100.30100643126
100.301240847882
100.301253464716
100.30123919612
100.301249298531
100.301235031008
100.301259370473
100.301257631425
100.3012499147
100.301263365879
100.301273416449
100.301353773778
100.301389787817
100.301356863108
100.301275396505
100.30111386776
100.301340644826
100.301387144548
100.30153237657
100.301653739665
100.301613335778
100.301459636627
100.301443802249
100.301404236037
100.301301435632
100.301324290626
100.301296583692
100.301265747675
100.301269725375
100.30127059583
100.301287915621
100.30125931466
100.301293347208
100.301046883683
100.300746781
100.301185928293
100.301292258267
100.301299709783
100.301313592554
100.301326430699
100.30131525846
100.301332800514
100.301351519827
100.301369269021
100.301391363976
100.301350515566
100.30146502956
100.301522115655
100.301654130865
100.301623960902
100.301678146004
100.30161955882
100.301580437637
100.301476569246
100.301472681831
100.301425755879
100.301422808036
100.301377455244
100.301333467726
100.301365191773
100.301370113344
100.30134302226
100.301360652131
100.30116088229
100.301151584552
100.301359805596
100.301419708213
100.301400587428
100.301414432268
100.301406889289
100.301455602431
100.30148590074
100.301509010173
100.301522604059
100.301674982484
100.301775941228
100.301848692382
100.30187019957
100.301752493265
100.301932796876
100.3019425489
100.302056837679
100.302147519616
100.302083585019
100.301960413871
100.301828696714
100.301710465473
100.301551743076
100.301550269566
100.301574462781
100.301521726776
100.301566438078
100.301482432369
100.301457011882
100.301490251004
100.301333498118
100.301429036209
100.301543679139
100.301560623788
100.301512705344
100.301576236469
100.301580543479
100.30160049508
100.301573792217
100.301631407083
100.301610214362
100.301786362003
100.301921560896
100.302084332608
100.302109988616
100.302122968102
100.301963548996
100.301919738663
100.30173489764
100.301698101474
100.301627474287
100.301640141779
100.301615676106
100.301634877646
100.301654330873
100.301612538946
100.301579127725
100.301648046827
100.301386998815
100.301506175794
100.301608767808
100.301678998113
100.301638819207
100.301673979161
100.30169187669
100.301732076243
100.301695994962
100.301761530259
100.30172247414
100.30179112271
100.302066003812
100.302246111842
100.302361796744
100.302363117977
100.302451993829
100.302526801141
100.302470859623
100.302309140368
100.302120902478
100.301890720932
100.301855854793
100.301749432464
100.301744027622
100.301794974675
100.301721619052
100.301743918075
100.301799192929
100.301737475655
100.301792712213
100.301733714338
100.301548751901
100.301750107403
100.301746731704
100.301777336779
100.301839059154
100.301799790788
100.301920789124
100.30184070572
100.301938708362
100.30190832318
100.301954767378
100.30207431311
100.3022748533
100.30246787043
100.302488163498
100.302457250757
100.302282534565
100.302353209927
100.302548227401
100.302697013937
100.302631824233
100.30275167884
100.302642159158
100.302662397409
100.302652886201
100.30245742595
100.302222280095
100.302057599363
100.302003238745
100.301914001421
100.301895775705
100.301944094343
100.301882323872
100.301893426359
100.301903666782
100.301881816883
100.301848250452
100.301885513164
100.301873754687
100.301557931275
100.30190476034
100.301798066654
100.301723110373
100.301934152826
100.30189366657
100.301931269563
100.301964072544
100.301932193203
100.301989683708
100.301977758
100.302122694277
100.302228565697
100.302260138426
100.30254122027
100.302747195204
100.302936767298
100.302873451207
100.303007773159
100.302939647204
100.302945781639
100.302914276509
100.302680683979
100.302416671361
100.302310104156
100.302136347263
100.30211169686
100.302132396127
100.302020991832
100.302080948097
100.301992082398
100.301953912088
100.302000078608
100.30192400802
100.30192265032
100.302017620925
100.30164236385
100.300843283438
100.301595120488
100.300996467277
100.30013374745
100.301066642024
100.300421685341
100.299610579091
100.298673596466
100.300080936361
100.299414594386
100.29772314676
100.296315320569
100.295395363404
100.294900106919
100.294731286698
100.2947624895
100.294919978037
100.295158488301
100.295475730902
100.295904445059
100.296516720242
100.297411843247
100.298630356168
100.300181735144
100.301912982648
100.303616213413
100.30510615416
100.306333153103
100.307362925987
100.308235170081
100.308936712064
100.30949272474
100.310177773596
100.310649313956
100.310163518362
100.30952698659
100.308702148848
100.307685447606
100.306448001115
100.304906859786
100.303083766689
100.301194158298
100.299464421673
100.298072001031
100.297047408981
100.296363637324
100.295899131458
100.295564730037
100.295306488008
100.295097312514
100.294955645861
100.29493957726
100.295136098196
100.295614591543
100.296497410794
100.297977052475
100.299813227535
100.300907564737
100.30117688084
100.301157784168
100.301181951835
100.301190476364
100.301197934267
100.301227943328
100.301208211255
100.301212782503
100.301145432341
100.300975189548
100.300714467369
100.300769355741
100.300455651979
100.299990086393
100.299289911192
100.299536976247
100.299842133874
100.30033407383
100.300307414721
100.300091086365
100.300519179412
100.300625752817
100.300781986781
100.300495675465
100.300722778555
100.300894117692
100.300533244092
100.300079093754
100.300464229722
100.300709459606
100.301015436886
100.301397506647
100.301307963952
100.301086778074
100.30081796646
100.30076102513
100.300920261134
100.301117062374
100.301144524256
100.301203892111
100.301120348442
100.301279675247
100.301235079097
100.3012117534
100.301157034783
100.30112550602
100.301106249911
100.301108410148
100.301119314695
100.301147799895
100.30117591916
100.301178049314
100.301191021378
100.301221115686
100.301197074883
100.30119124433
100.301127482032
100.300976482364
100.300908389983
100.301066241842
100.301187587841
100.301192457704
100.301225521085
100.301226828685
100.301246572916
100.301197037999
100.301255713951
100.301219055502
100.301239093479
100.301174108863
100.301020885265
100.300734545809
100.300337359167
100.300676782878
100.300371470281
100.299922286223
100.299156441657
100.298164037363
100.297046438711
100.295434249326
100.296843165215
100.297220182649
100.297791790934
100.29834979995
100.298760746493
100.299109722516
100.299802013824
100.299845587928
100.299601778021
100.299105607667
100.298650823132
100.298251075963
100.298022430047
100.298897636922
100.299401120618
100.300035281621
100.300267228567
100.300847492408
100.301078921164
100.301202561373
100.301214332041
100.30113699935
100.301144359925
100.301157922819
100.301183348294
100.301213526899
100.301261629332
100.301216388452
100.301318553854
100.301290801735
100.301351685334
100.301296272331
100.30116930593
100.300883792806
100.300492298954
100.299849584115
100.299106107873
100.299060877766
100.298009522603
100.296823455472
100.295041981134
100.292993147753
100.290179214038
100.291160387645
100.29251018921
100.293606631263
100.294551673429
100.295948430702
100.296093355771
100.295367734289
100.294695743701
100.293629238971
100.293171500056
100.295018726478
100.296339195351
100.29668699421
100.298072130211
100.299673425568
100.300388128964
100.300677154761
100.3008177965
100.301176297312
100.301194217796
100.301196286917
100.301213777199
100.301233196323
100.301295848997
100.301231800196
100.301390267168
100.301369262819
100.30144925051
100.301412361203
100.301290864991
100.300992864022
100.300612722727
100.299879777773
100.299168590497
100.298000778899
100.296852722506
100.294783025661
100.294805227889
100.292526728182
100.289393434296
100.285453761508
100.280283412578
100.260586031
100.27065534236
100.281410515209
100.282514600511
100.286788482758
100.288096081107
100.283248318146
100.286983732915
100.289375996649
100.291215199244
100.292868703056
100.293854564689
100.295062233663
100.295149865578
100.294348035088
100.292857063926
100.291417794305
100.289952708024
100.289683304174
100.292084991165
100.2941710456
100.295118932237
100.297096210709
100.298311525465
100.300279838176
100.300739858672
100.300844109222
100.300941516294
100.301154466165
100.301124951105
100.301125703449
100.301110823344
100.301103868116
100.301096920872
100.301195332257
100.301217067609
100.301213613853
100.30122989317
100.301292813501
100.301228912418
100.301387729991
100.301367988793
100.301451978397
100.301415212317
100.301311681238
100.300984181864
100.3006471825
100.299855872498
100.299170699134
100.297996980529
100.29683490235
100.294760896204
100.292268539216
100.289039168146
100.288994850866
100.284534698814
100.279179296001
100.254623800655
100.225767465427
100.16517865237
100.18342756249
100.189303893888
100.192999403332
100.192545215202
100.199266281548
100.196568177043
100.192995180244
100.198397183096
100.202947053331
100.201050492133
100.196691970334
100.20543538373
100.200941446716
100.201341871678
100.208642884121
100.202180289791
100.201150821743
100.20912984776
100.204724452272
100.19825982997
100.207350385119
100.203958098393
100.196935016794
100.205606714357
100.202502051649
100.19496597127
100.20570632407
100.207084357152
100.204538501388
100.203812310167
100.201840989179
100.200329120331
100.199859348533
100.199987077099
100.199936105349
100.200308135445
100.200597364773
100.200608454749
100.20026496892
100.20048575144
100.200645204377
100.200719114213
100.200513813006
100.20036942136
100.200769840725
100.200467719215
100.200317839857
100.200256750353
100.200497434642
100.200599359926
100.199887336628
100.199893816982
100.200559161696
100.200466804692
100.200219400115
100.200329790488
100.200472321003
100.200775671216
100.200368134334
100.20051375479
100.20071966074
100.200646008212
100.200486933973
100.20026684892
100.200609995525
100.200600197625
100.20031015664
100.199936128455
100.199984251901
100.199859386023
100.200333144601
100.201304733282
100.202323028488
100.202336607101
100.201296669086
100.201777772256
100.202703485719
100.202722489832
100.201794664816
100.201853473956
100.20168912629
100.201274064295
100.201876892126
100.202078144277
100.200736620301
100.201240541638
100.20097995446
100.201148315379
100.201595661189
100.200685995991
100.201333468908
100.201865699014
100.201986537471
100.202575411428
100.200753154935
100.201732092802
100.201130714405
100.201034036043
100.200600195741
100.201171973483
100.202999471938
100.201660206279
100.200366932759
100.20159525808
100.201580157675
100.200346818737
100.201154413035
100.200598204835
100.201026565641
100.201138023094
100.201730541952
100.200747107168
100.202574998778
100.201979918381
100.201857708022
100.201329338753
100.200679675433
100.201592607027
100.201146028277
100.200975568343
100.201237029386
100.200729792352
100.202078564737
100.201877025676
100.201272820254
100.201681353036
100.203672090678
100.203114004971
100.203950977741
100.201497743662
100.20007768072
100.203929241154
100.203129604145
100.202560783403
100.203219173953
100.201977742512
100.202868202116
100.200234199608
100.20592667819
100.205187180214
100.205526446463
100.202006045787
100.201173591651
100.201166519216
100.202001692227
100.203812172743
100.203683980958
100.203123892801
100.203228043213
100.202569062094
100.20313133697
100.202975317548
100.201068846062
100.202007172368
100.203180150739
100.20418536093
100.202370358327
100.202697531999
100.203502016221
100.204509268911
100.202053413654
100.201487646924
100.202002325504
100.202083030551
100.202077814701
100.201560330463
100.201857331019
100.202623063073
100.202618923831
100.201843798182
100.201544445706
100.202072910096
100.20200002477
100.202045742052
100.204516420185
100.203494930643
100.202691728039
100.202358912271
100.204195792279
100.203195249036
100.202014452469
100.201067519591
100.202989958194
100.202189313681
100.200981187516
100.201741763182
100.201533787996
100.202519100336
100.200971301367
100.200575206363
100.202811885465
100.203136207542
100.203281443274
100.202937866458
100.203998887444
100.202180633271
100.201730564491
100.203973458775
100.205037541773
100.205057456947
100.203948891477
100.204788638543
100.201347604771
100.202431161447
100.20447001255
100.203703183042
100.205337985621
100.204511690905
100.205463588865
100.204627065844
100.201148021883
100.202054462236
100.201422071564
100.199473221567
100.193028774755
100.193698268378
100.187779863669
100.191295750127
100.178583694397
100.172977735855
100.176723810451
100.182344676432
100.162768168035
100.236089623458
100.25840096662
100.22241795299
100.250669603291
100.270048380469
100.27807577938
100.283746140805
100.283656816328
100.27879013721
100.271862156202
100.279613290474
100.283640893778
100.286448453337
100.288748737043
100.286838928904
100.28998820027
100.291573765115
100.29302330611
100.294024638252
100.293900544733
100.292389657652
100.291008202063
100.290714500172
100.292145306469
100.293420828987
100.294088008964
100.294962016483
100.293058009438
100.294567883388
100.293331653066
100.292528389396
100.292243239728
100.292096643683
100.2925962057
100.291699491293
100.291650633924
100.292044909375
100.292827129017
100.291028400037
100.293797439098
100.294246016047
100.294855576754
100.295732463044
100.29749379726
100.296773464451
100.295809083808
100.295033291542
100.294092986775
100.293142030323
100.292313375121
100.291179323478
100.293344012495
100.292282423569
100.291882824147
100.292362013224
100.291689069745
100.292472919011
100.291814643802
100.29549039765
100.296257873362
100.297017662203
100.296837487823
100.296603991299
100.296799073359
100.298718735618
100.300667242433
100.299367584535
100.298715345083
100.299238121643
100.295088885992
100.294589422906
100.295749163264
100.297464867201
100.296666821617
100.299301830718
100.297377924975
100.297759921063
100.298255743237
100.297590806577
100.296880172212
100.296172673991
100.295969720213
100.296414236474
100.295616765685
100.294579746189
100.29358355063
100.292612952986
100.292919953317
100.291853877906
100.290823211784
100.291823739827
100.290465764698
100.290691236165
100.290921049516
100.291985137347
100.293802504525
100.293633699305
100.292142483779
100.292924291896
100.292329250654
100.294963602783
100.294072225591
100.293878079925
100.294254608104
100.295209214221
100.297256611956
100.294978072872
100.296883669616
100.298136679491
100.300253885829
100.300899136533
100.301782522853
100.300800631272
100.300213078686
100.300193780564
100.301622974561
100.301147568589
100.300081309209
100.300186820739
100.297919223448
100.299375130352
100.298217996842
100.297256818869
100.29880188549
100.298153150751
100.298542550755
100.298110893693
100.298217467575
100.297885576487
100.299839498652
100.30035936188
100.301251632198
100.30174808992
100.301838253058
100.30189687789
100.30166544482
100.301691931561
100.301175062648
100.300794352881
100.30017716137
100.299277391526
100.298242938692
100.297059380616
100.296224501143
100.295743734489
100.295614428426
100.296285312607
100.297596394327
100.299345134181
100.300749564784
100.300698730525
100.300696883321
100.301192955798
100.301185574519
100.301186216144
100.30120378427
100.301253657429
100.301209750847
100.301316671138
100.301289604044
100.301356711668
100.301300445635
100.301194507086
100.300877490132
100.300535277494
100.299824346095
100.299102813064
100.297924919283
100.296750943926
100.294767656252
100.292486361218
100.289433596871
100.285548204458
100.280527906884
100.260924701669
100.254945267119
100.22606028174
100.164756536989
100.183258370857
100.189204294347
100.192928751187
100.192519092571
100.199125400952
100.201005123256
100.196720288718
100.205530093094
100.200931415422
100.20136736041
100.208630194257
100.202206445696
100.201171183527
100.209131364723
100.204739369409
100.19829193256
100.207332958112
100.203976821048
100.196945600026
100.205609794357
100.202520949967
100.194972554889
100.205923709275
100.205175826063
100.205581669497
100.205672540136
100.204567113724
100.207120880452
100.201489659124
100.203957396079
100.201943296068
100.203929348966
100.200079461147
100.200981693132
100.20218477741
100.203277046491
100.203977588235
100.203130753283
100.20243616206
100.201088660701
100.201427365215
100.204044066461