/*--------------------------------*- C++ -*----------------------------------*\
| =========                 |                                                 |
| \\      /  F ield         | OpenFOAM: The Open Source CFD Toolbox           |
|  \\    /   O peration     | Version:  v1612+                                |
|   \\  /    A nd           | Web:      www.OpenFOAM.com                      |
|    \\/     M anipulation  |                                                 |
\*---------------------------------------------------------------------------*/
FoamFile
{
    version     2.0;
    format      ascii;
    class       volScalarField;
    location    "1";
    object      p;
}
// * * * * * * * * * * * * * * * * * * * * * * * * * * * * * * * * * * * * * //

dimensions      [0 2 -2 0 0 0 0];

internalField   nonuniform List<scalar> 
79587
(
100.072628341586
100.074572706885
100.071197064819
100.07554417646
100.082585873044
100.08270154084
100.08065718502
100.081182153984
100.08129530383
100.081669649397
100.081957085637
100.081769324468
100.083647791527
100.083336010787
100.085673948968
100.085631904181
100.082314153914
100.077667493845
100.07664967999
100.076646712953
100.077637045322
100.077354022978
100.076572491421
100.078117457109
100.084526623156
100.084425133713
100.078768630582
100.077100027195
100.077073362635
100.07625636474
100.07612898517
100.077196949443
100.077108502484
100.078723339942
100.084186158305
100.084089725697
100.077915192642
100.076530429888
100.07733995937
100.077410836808
100.076507640651
100.076512359291
100.077579879
100.082144551798
100.085287883732
100.085144353788
100.078245897251
100.077793642476
100.07550722704
100.07479837557
100.074925933945
100.074793274741
100.074200549501
100.072878842617
100.073996036488
100.07531365473
100.075412549196
100.074505857195
100.073540280105
100.072316474106
100.071987135992
100.072577631466
100.072501737284
100.071826342376
100.072328574356
100.073523792094
100.074353718681
100.075439074607
100.07551465492
100.07409945652
100.073021185925
100.074375235127
100.074868268421
100.074972810506
100.074759193641
100.075464264972
100.07800266342
100.07872453676
100.076314735368
100.079215970266
100.082130885464
100.083482199929
100.081159641407
100.080968931397
100.082361208779
100.08064237454
100.078280833269
100.074050890104
100.079328246673
100.068097676776
100.057095850944
100.062864238611
100.063959873192
100.074904966883
100.070575643121
100.071204782182
100.073529108977
100.071653826272
100.07017178446
100.069586681602
100.072306803745
100.074123765387
100.069983449595
100.069221775978
100.071420845977
100.068159942674
100.067048610088
100.0682799877
100.068281787882
100.067095030087
100.06817108168
100.071364874041
100.069096652638
100.069531507407
100.07416991694
100.072745396195
100.069876856354
100.070316649441
100.071704458041
100.073524347866
100.071109567815
100.070416537304
100.075165974308
100.075190317527
100.072171381096
100.07528326764
100.081494324948
100.086182560124
100.079126427341
100.079069712011
100.083875015861
100.099818376888
100.069515844816
100.070037280384
100.054346857656
100.027361298579
100.028297295216
100.024122666502
100.024421537662
100.030709061021
100.062129258017
100.073336788688
100.069042278198
100.068782688929
100.075474568689
100.063692325707
100.064388873886
100.064223362826
100.064456354736
100.072212297697
100.067750044819
100.067732549701
100.072150240715
100.064474975231
100.064288559306
100.064424778351
100.063556013785
100.062257968617
100.064259731729
100.062216779147
100.022584421942
100.025002456899
100.025808368497
100.025443630408
100.02483797975
100.024925064597
100.02639740416
100.027007273387
100.031143810939
100.028392685993
100.02938503563
100.032901348432
100.032907513603
100.029436444987
100.028414566896
100.030959495123
100.030461828741
100.023855163032
100.024670366278
100.031240753303
100.03191469549
100.030510873893
100.030161517762
100.031434638521
100.03134063969
100.030522165667
100.030837286762
100.031008685066
100.026054809253
100.026894072712
100.028138067058
100.028096332381
100.026823982873
100.025920177259
100.026822342143
100.026153090401
100.03034384175
100.031685831296
100.032276602668
100.032428640434
100.031805066413
100.031906734867
100.032565526312
100.032447843075
100.031882909004
100.032075541711
100.032221216963
100.032244839571
100.03141872752
100.031106763278
100.031046570629
100.031297664468
100.030845306979
100.030643846492
100.031891853313
100.030162646957
100.029983577725
100.030163898707
100.029988436143
100.030273930675
100.030591997731
100.030471241562
100.030330846532
100.030120062574
100.030295784085
100.030283469865
100.030291852173
100.030180472576
100.031913360701
100.031871366192
100.032149847134
100.032047976924
100.030164609673
100.027851179594
100.027878148827
100.027758786892
100.027846237818
100.02777052063
100.027578858359
100.027595458033
100.027806415538
100.027859678017
100.027765562551
100.027924302071
100.027895983108
100.027975604128
100.027939200622
100.027923781787
100.030156361517
100.030272632941
100.027962393901
100.02605941854
100.025958021249
100.025976311634
100.025886610596
100.025965986828
100.026057724767
100.026145438676
100.025881028524
100.025645682291
100.025823727297
100.025757792466
100.025916581465
100.02591517561
100.026035951556
100.026030765062
100.026033372994
100.024359084095
100.024371727693
100.024255788794
100.02425398633
100.024152813788
100.024142150541
100.023997822721
100.024234043342
100.024091937544
100.023760644135
100.023986393528
100.02391441605
100.024086480817
100.024123324826
100.024291415561
100.024331881699
100.022575443314
100.022625638769
100.022598300657
100.022419898166
100.022371450713
100.022215011262
100.022143850325
100.02183972537
100.021455526476
100.021490877677
100.021799181229
100.021940085414
100.021914897732
100.022117049439
100.022199992453
100.022466834648
100.020296413519
100.020520206062
100.020588571946
100.0204820127
100.020196672548
100.020085952853
100.019817067712
100.019700123157
100.019553516819
100.018669759704
100.018664486363
100.019406377842
100.019393793596
100.019505588596
100.019748396914
100.019905686741
100.016587729056
100.01734636794
100.017769585902
100.017849364925
100.017534370174
100.016938036279
100.017018710119
100.016579904701
100.016120506208
100.01632690021
100.014747657204
100.014672469302
100.016068094111
100.015742199713
100.016255778429
100.016602761809
100.011827423309
100.010890389029
100.012506010232
100.013607185
100.013691836301
100.012751630878
100.01130091715
100.012365783572
100.011892010611
100.009890120727
100.011369194403
100.007853688661
100.007732559094
100.011077832934
100.009476607596
100.01142807052
99.9998317905721
99.9996160383222
99.994355902381
99.9975421036241
100.001660855151
100.001769252118
99.9979354774281
99.9949271647044
100.00040068967
100.000471935326
99.9929750330405
99.9973438826267
99.9927933146766
99.9926090729363
99.9968986530344
99.9927889019939
99.9994876591322
100.007676586254
100.006253131479
100.000266207448
100.007261240732
100.009661456386
100.009797585853
100.007697441799
100.000962679433
100.007082161522
100.0086020559
100.00030211481
99.9965516595263
100.028085704002
100.050476653129
100.050136210332
100.027491357062
99.9939654068781
99.9945119006729
100.087662947918
100.172158038851
100.109229435691
100.109214478028
100.094589522606
100.082449614666
100.070811251949
100.067776333786
100.063438706884
100.06304732361
100.07658180561
100.069791553556
100.070033831734
100.077198527037
100.064309703897
100.064646179197
100.069459779547
100.072056129461
100.082984303354
100.094538146842
100.186995111944
100.204444734878
100.204340033484
100.186650282879
100.188088869706
100.1770515098
100.20109289668
100.24091767436
100.153711668473
100.154701525573
100.205775624024
100.170472060403
100.197506171664
100.223217050684
100.164164668196
100.164404908555
100.223850656445
100.198460797105
100.172018016202
100.207560045564
100.155964364086
100.154898213368
100.202716860739
100.178801065912
100.188683175757
100.27805211438
100.323838308354
100.294111417381
100.293830400829
100.323510053168
100.295262441479
100.27744011473
100.401497241459
100.431777388944
100.38582459838
100.403193135616
100.402528499545
100.354617905159
100.296838097689
100.325767443321
100.273844204574
100.395637515041
100.429370979191
100.384161719277
100.38462648199
100.310928506176
100.31250936201
100.242083259009
100.291181396106
100.375743210565
100.420546314149
100.385812434058
100.393315750082
100.329157838292
100.283131028125
100.324545105557
100.306436962789
100.312129091054
100.338326069084
100.248017292573
100.248092109071
100.338161758066
100.312917706806
100.307672917853
100.326298344429
100.284882547386
100.331639464202
100.315774711604
100.313772221113
100.327824186629
100.298118836058
100.29631788391
100.35555034236
100.40349454502
100.385983423885
100.401243923897
100.43160514405
100.431667236887
100.401267484877
100.372563467113
100.372562050845
100.449726857275
100.471660448844
100.462792890513
100.462814434207
100.463495884405
100.451835504117
100.436300331531
100.478722270368
100.478251012243
100.475050391789
100.47141510724
100.466139950013
100.461791253806
100.446008324615
100.442632602858
100.443947616268
100.451257567037
100.422623185743
100.421143065491
100.421931314448
100.429306455342
100.451143658147
100.449956402429
100.432506960431
100.391328077313
100.400836870082
100.381291991116
100.417073567365
100.406718859403
100.406101105416
100.416196089053
100.38183292819
100.401825504158
100.393102104655
100.395627428031
100.389267242611
100.387856673954
100.386468460919
100.403669057741
100.443706089489
100.446168314375
100.452066210087
100.463553988213
100.475050631829
100.472739116483
100.478920920466
100.479045208507
100.472635977978
100.471516298759
100.471470819952
100.476453523419
100.472866353562
100.475445744376
100.475368103471
100.478554051615
100.474147041229
100.47658952692
100.477407203328
100.477050049685
100.477184525835
100.478829633541
100.476347098529
100.478247705005
100.476659980192
100.476752602383
100.474743051066
100.471737541196
100.46675839255
100.467474553573
100.459367581465
100.47650208831
100.476587837604
100.472977424902
100.472261651025
100.472854109603
100.468127408808
100.466545387364
100.469991577287
100.452055504458
100.453075391327
100.454342820235
100.469203300151
100.466136753343
100.465488126789
100.468299642458
100.45227177539
100.449770396925
100.455228168343
100.442485065206
100.441394715746
100.454344555047
100.448474515561
100.452319765438
100.433759568335
100.451700387133
100.453353929195
100.432454440992
100.425617536338
100.424576369032
100.425135381037
100.445555699384
100.459954133035
100.467044074154
100.466099227405
100.470898703567
100.47632771029
100.473826222883
100.478322223539
100.476808742341
100.476649091855
100.476837979724
100.477071285452
100.476715340242
100.475853778151
100.475711456082
100.476203432823
100.478581785297
100.477473239382
100.477403323282
100.477420002438
100.477367520942
100.477225636315
100.477534447765
100.477405685667
100.47724725726
100.476963485377
100.476417456499
100.477327534665
100.477317581584
100.477596348579
100.476605749443
100.477372404824
100.476910407135
100.475853959943
100.47611848647
100.474663084359
100.474301463096
100.475048929086
100.474797882012
100.474124038576
100.474062495764
100.47338681371
100.471962747513
100.47346995386
100.474358078046
100.475719078987
100.468908266016
100.470181807132
100.471562807716
100.472018243206
100.474130246476
100.467688823327
100.429712483329
100.426282618475
100.430931530009
100.441645319479
100.442889220696
100.432972981194
100.430477280192
100.426218700969
100.424372706177
100.421251885305
100.426116672491
100.419623651756
100.426211172174
100.443872432793
100.433318962713
100.437729007355
100.448254401215
100.469396211932
100.468284385007
100.47237101013
100.461013383282
100.463793720036
100.464329589717
100.46560196541
100.458364150593
100.448003978416
100.447556051239
100.423448986866
100.426735849544
100.430899977737
100.42997617558
100.424077925015
100.419425602297
100.432164136732
100.424228607259
100.423291078338
100.437159954694
100.441214733835
100.427024509761
100.424985806021
100.447542552145
100.478414114221
100.478977017784
100.466796518752
100.48302472527
100.466118152554
100.494356407777
100.476087984574
100.460479201899
100.464663924197
100.466290435325
100.469883257337
100.462447233102
100.467678140576
100.451516841502
100.430639098954
100.423437540319
100.427817779458
100.407054025063
100.413259799653
100.436412711667
100.433517736114
100.426240004278
100.422356225603
100.434633126943
100.427858600546
100.42532821661
100.436074431033
100.42567267074
100.425841415926
100.425726687722
100.427108316738
100.424901138537
100.44739711574
100.478578602616
100.479081488009
100.467165462899
100.483700799528
100.480242356953
100.436915632759
100.436161015775
100.435511827686
100.428512292856
100.436405362948
100.479669464947
100.478860970522
100.474430872581
100.487244393962
100.481708814808
100.462899405509
100.444448701282
100.463088898366
100.467370267884
100.466771739477
100.466898788831
100.467800683913
100.451887107569
100.431179246092
100.431014966634
100.430709857152
100.435252746748
100.434769537389
100.42961597859
100.43430626215
100.426911549291
100.419278052643
100.425655115457
100.436658481022
100.431892132187
100.443460211548
100.435902929573
100.435051330175
100.444025980951
100.431529580802
100.431713276415
100.425634562854
100.435618661209
100.437409841749
100.441509055425
100.437907950927
100.448390877362
100.470125931649
100.468966126522
100.473503356603
100.467155702032
100.496035297666
100.480118325449
100.429624121116
100.434926446375
100.4342285561
100.468989355196
100.469299473386
100.489983868971
100.48593564454
100.486376249023
100.468292514959
100.471274282594
100.463398773395
100.448494895761
100.425359148219
100.425116672392
100.42969649117
100.435395141032
100.434289042879
100.438878592847
100.439092018515
100.432695926817
100.433781196924
100.448804252869
100.444576200725
100.4507923076
100.450768103841
100.444432199734
100.442053618945
100.443562176124
100.441196781127
100.449574660902
100.449997501915
100.44175755001
100.443378656058
100.44381485408
100.435570180969
100.426376767779
100.423580708323
100.425741652186
100.433671653277
100.445768064522
100.465556515694
100.462773449177
100.462827042124
100.478159467076
100.483629963519
100.489204003884
100.475910486206
100.469728518145
100.469706530707
100.490533557403
100.464790206328
100.462774515751
100.468451958461
100.464628339481
100.457059818352
100.471543774252
100.471727666751
100.472315355501
100.470566298734
100.46894857082
100.468712001653
100.471668181547
100.473491417735
100.474992793042
100.476452904197
100.476579428512
100.475555770937
100.474132313865
100.472611478793
100.471273927755
100.471883554439
100.475368951654
100.485206959377
100.501373571583
100.532138935298
100.527994906191
100.47439463516
100.429645796172
100.382545767558
100.355697935126
100.375696576824
100.373598238918
100.371845968162
100.372439471304
100.373439116199
100.374421542481
100.37560938122
100.377129040978
100.378860708434
100.380567280371
100.382000625571
100.382987117739
100.38343093182
100.38342623717
100.383219996882
100.382768573398
100.382045899886
100.381058438141
100.379786234004
100.378296838736
100.376602341288
100.374702217737
100.37272883322
100.370872362763
100.36928885041
100.368064545492
100.367199889845
100.366696895204
100.366552811442
100.366738119617
100.367264333376
100.368174868305
100.369490040041
100.37109655373
100.372808579615
100.373747602996
100.373807826875
100.373668275058
100.373737670119
100.373722032487
100.37382999571
100.374105676497
100.374075411231
100.374197528642
100.374238722781
100.374498756315
100.374663140644
100.37485935001
100.37507687129
100.375095494595
100.375229723433
100.375097892264
100.375049795715
100.374960663183
100.374873382051
100.374781057905
100.374695494652
100.374572090609
100.374493872855
100.374360571981
100.374235269463
100.374090175608
100.373936978216
100.373739257562
100.373723979316
100.373673027783
100.373928413298
100.374066045185
100.374215059257
100.374337695099
100.374477387468
100.374566193709
100.374672202257
100.374768629469
100.374865775405
100.374951712896
100.375055214537
100.375177202
100.374932463087
100.374788529607
100.374525714322
100.374380287126
100.374119971971
100.374126897786
100.374009724912
100.374041640781
100.373745755603
100.373665283109
100.373569473861
100.373595961732
100.373673944587
100.373960821101
100.373947980508
100.374054410852
100.374029614927
100.374281660714
100.374434894155
100.374717160265
100.37484262338
100.374758493263
100.374634635722
100.374320822775
100.374173046119
100.373952618865
100.373981198525
100.373884626828
100.373856051636
100.373605265277
100.373541231007
100.373410186138
100.373455507314
100.373539477076
100.373754760019
100.373807177259
100.373897583519
100.373879942411
100.374082550206
100.374202812964
100.374525999107
100.374679197277
100.37458221086
100.374424740517
100.374088555959
100.373995393491
100.373805222636
100.373787266666
100.373727023879
100.373667517002
100.373471769682
100.373403691502
100.373258717065
100.373307288591
100.373402131111
100.37357104685
100.373619739586
100.373606380352
100.373841426776
100.373867312313
100.37401639289
100.374326931192
100.37449366174
100.374404885622
100.374223230961
100.373891168171
100.37372311402
100.373674118281
100.373507010732
100.373533586377
100.373479957095
100.373332241366
100.373267877702
100.373142810588
100.373166668689
100.373259673627
100.373385812346
100.373430740823
100.373427606406
100.37356240723
100.373610734318
100.373748968473
100.374094094551
100.374293074776
100.37414583352
100.373953687279
100.373594323328
100.37349718141
100.373492538547
100.373386995696
100.373362594545
100.373325011363
100.373299175051
100.373192495673
100.373140641746
100.373046348534
100.373029530249
100.373123424323
100.373224395642
100.37325187257
100.373299950291
100.373316208686
100.373433395384
100.373529812209
100.373848393879
100.374022869845
100.373890024498
100.373718345372
100.37341192477
100.373315092565
100.37323235032
100.37322027268
100.373172345712
100.373159857815
100.373061410174
100.373016610001
100.372904651969
100.372905097369
100.372996316866
100.373092971661
100.373087813528
100.373147233793
100.373167801842
100.373233117071
100.373287473022
100.373585206031
100.373758999418
100.373554263197
100.37343101756
100.373176665156
100.373165412675
100.373084201709
100.373061264963
100.373015101765
100.373027457764
100.372940846346
100.372904756901
100.372771923711
100.372794949949
100.372872857891
100.372933061504
100.372933514752
100.372987063892
100.373006709816
100.373070588105
100.373054553306
100.373305142333
100.373430513183
100.373451240688
100.373343455722
100.373267534161
100.373249659584
100.373089474865
100.373014175201
100.372991091665
100.372889273183
100.37293012363
100.372894016165
100.37284202261
100.372840527455
100.3727985684
100.372717818573
100.372569447638
100.372509559617
100.372565682017
100.372533441775
100.372647090767
100.372692610578
100.372739276199
100.372758809596
100.372774162156
100.372824022563
100.372853604382
100.372823830888
100.372986397513
100.373054661168
100.37326190898
100.373156043665
100.373163137352
100.373140945691
100.372966310808
100.372839470372
100.372863226552
100.372787479602
100.37298906164
100.372920960469
100.372873132674
100.372748670323
100.372749362029
100.37272052305
100.372678114928
100.372648518849
100.372663412055
100.372619094211
100.372582662283
100.372451050649
100.372339998659
100.372444618834
100.372570135464
100.372569410684
100.37261961022
100.37260114326
100.372614368046
100.372633204031
100.372697235045
100.372693251757
100.372823394742
100.37281216302
100.372673929481
100.372702571636
100.372626607591
100.372629469617
100.37255058844
100.372577540018
100.372729645907
100.372582728114
100.372620095544
100.372592888924
100.372585230596
100.372558298217
100.372570359306
100.372525062144
100.372512466176
100.372382116629
100.372284665407
100.372393993309
100.372502887426
100.372499312727
100.372517578339
100.372515976757
100.372538137496
100.372542105478
100.372531278939
100.372531609931
100.372567838231
100.372543286948
100.372559346665
100.372563097884
100.372723511027
100.372700139829
100.372782318916
100.372848849293
100.372919209703
100.372964641057
100.373005143972
100.373037853055
100.373078096931
100.373132777037
100.373213317559
100.373297798387
100.373373016216
100.373447144295
100.373540032021
100.373620270641
100.373707014561
100.37380778029
100.373925576849
100.374031828609
100.374292454815
100.374386118623
100.374660486556
100.374729864186
100.374957858718
100.375142175147
100.375131124464
100.37531049613
100.37523919993
100.375139773913
100.37513438128
100.374891995993
100.37476111834
100.374698866063
100.374551539619
100.374444301937
100.374338659717
100.374238600307
100.374112702557
100.374017609968
100.373917415539
100.373811360831
100.373656836071
100.373559843932
100.373440017843
100.373562639667
100.373534930837
100.373785788292
100.373939261841
100.374076255419
100.374157637235
100.374266377899
100.374396457318
100.374490804268
100.374573955776
100.374686608597
100.374810501099
100.374902397222
100.374971037432
100.375128161238
100.375266757557
100.375297799021
100.375163122846
100.374933134515
100.374569264848
100.374140126526
100.374282775169
100.374391305571
100.374725124842
100.375023203562
100.37520164962
100.375330634186
100.375290686608
100.375190374221
100.375025155824
100.374757668409
100.374371632475
100.3742850392
100.374199115343
100.373987420323
100.373840756711
100.373483167489
100.373295213947
100.373152834186
100.37300017428
100.372878253243
100.372714937782
100.372600931683
100.372476380948
100.372352519251
100.372208741039
100.372452014575
100.372754761802
100.372932949165
100.373007376584
100.373127536424
100.373253027435
100.373400165327
100.373494033641
100.373641875407
100.373763262384
100.373946530395
100.374314452991
100.374337073203
100.374532400851
100.374679961314
100.374993180015
100.374784473313
100.374708940994
100.374864154883
100.374652417776
100.374394912678
100.373831000474
100.373677482691
100.373917666834
100.374169359029
100.374149672675
100.374205828498
100.374349901251
100.374436428913
100.374541815701
100.374784605312
100.375066253398
100.375235558937
100.375355498565
100.375333375268
100.375217897549
100.374986565259
100.374732000857
100.374630906097
100.374407305356
100.374073719004
100.373633780585
100.373553117419
100.373377917162
100.373120698511
100.372908672606
100.372745135409
100.372566743607
100.372352693825
100.372153848261
100.371963255675
100.371840986829
100.371653775578
100.371490965636
100.371271723885
100.371113209607
100.370984726906
100.370913525127
100.370716769543
100.370550631384
100.370718764497
100.371138188561
100.371351615811
100.371459260175
100.37142505853
100.371533678373
100.371661163631
100.371848746431
100.371987308411
100.372167877271
100.372294111586
100.372466749408
100.372631685737
100.372870172807
100.373143433537
100.373307216768
100.373672457782
100.373707667205
100.373902668291
100.373684877753
100.373971571731
100.374241910425
100.374267822296
100.374248036289
100.373841237292
100.373839419782
100.373943327069
100.373950820466
100.374153112456
100.374347071505
100.374320377702
100.374495420204
100.374495556631
100.374637837733
100.374843513922
100.375131416932
100.37528055941
100.375407758221
100.375341859685
100.375352786353
100.375304633342
100.375112433552
100.374818872538
100.374476705137
100.374144013018
100.373731881048
100.373258732043
100.373066464198
100.372974730219
100.372763512803
100.37264844756
100.372499084563
100.372338696215
100.372181236036
100.372055034371
100.371810816581
100.371749518939
100.371542939957
100.371342417325
100.371181104786
100.370913535938
100.37067277638
100.370439346672
100.370282418209
100.370082186703
100.370303517799
100.370586373483
100.370831943586
100.371059602198
100.371301802373
100.371414077366
100.371597992298
100.371801590451
100.37200452503
100.372110354969
100.372297767118
100.372496905202
100.372723893691
100.372867236063
100.373121281483
100.373099899363
100.372841702163
100.373094369199
100.373247378953
100.373502827172
100.373404335884
100.373512661743
100.374649274767
100.374476152561
100.374338907767
100.373916980918
100.373826254675
100.374128682513
100.374164734314
100.37442438381
100.374382865902
100.374519715947
100.374538804197
100.374877389184
100.37506838216
100.375336900481
100.375482735968
100.375404813463
100.375467980332
100.375389117358
100.375334306513
100.375121933109
100.374879873657
100.374465563728
100.374190100833
100.373994390124
100.373759996797
100.373496993658
100.373200788502
100.372871154265
100.372871419301
100.372783029468
100.372636901843
100.372681482593
100.372487651919
100.372344764897
100.372250669998
100.372113264606
100.372260743289
100.37204120974
100.371826086971
100.371673588692
100.371486724926
100.371278288263
100.370994042712
100.370727402244
100.370465441088
100.370180848624
100.369844109456
100.369477035686
100.369124027946
100.368649169454
100.368922615293
100.369364766224
100.369752651087
100.369975363778
100.370205549852
100.370467864954
100.370727381232
100.371016846213
100.371195591758
100.371382137342
100.371590133962
100.371900548106
100.372092576472
100.372043812718
100.372089781514
100.372236117281
100.372388522166
100.372658970234
100.372744076167
100.372736551848
100.37258552475
100.372522561531
100.372562779431
100.372565484138
100.372551946376
100.37378680114
100.370990403987
100.369822039357
100.369277497282
100.368408817503
100.367627629003
100.367044546096
100.366551156203
100.366242379508
100.365928797239
100.365490595846
100.364805559327
100.361899688107
100.35956520681
100.364485965586
100.364819592953
100.365406833183
100.366459441617
100.367838695222
100.368726156657
100.369438995782
100.369976102662
100.370416989237
100.370802450618
100.371023796195
100.371355851093
100.371984574216
100.370696031777
100.37259131731
100.369923098093
100.373646416858
100.373533880849
100.373790234565
100.3738384493
100.373968555783
100.374087019266
100.374344807581
100.374288587183
100.373736089458
100.372814490208
100.371681029152
100.370046243642
100.368434527158
100.367615065357
100.370632421681
100.372451455131
100.369184525631
100.365102909066
100.36235365368
100.361246705702
100.349867846363
100.354079225271
100.352526483243
100.356727567345
100.357614968614
100.359542683794
100.362876880224
100.361905961103
100.358841457674
100.359329798849
100.357161430445
100.359195358661
100.360950574867
100.361555315031
100.362363711851
100.363613861201
100.363430812225
100.366494921576
100.368212564246
100.369807889893
100.371452325644
100.372336485017
100.372456824583
100.372537993103
100.372429064534
100.372924459887
100.37309478456
100.373254540975
100.373420449491
100.373617203662
100.373807706403
100.373974002364
100.374125617561
100.374018306203
100.37378002998
100.373950255911
100.373876643171
100.374018477471
100.374207800371
100.373982180509
100.374085406995
100.374321188793
100.37442888966
100.374378795066
100.374455602128
100.374746745899
100.374942093098
100.375195586064
100.375335367218
100.375460903779
100.375487525637
100.375290409508
100.375064765036
100.374777362972
100.374865878793
100.374998400298
100.375275343309
100.375408735913
100.375469091704
100.375461886889
100.375346761056
100.375174719941
100.375115660791
100.375069239324
100.374876691786
100.374623342963
100.374254294281
100.373803614105
100.373588764744
100.373419405757
100.37328590625
100.373089670059
100.372991744349
100.37282242608
100.373004793284
100.37290538091
100.373063381029
100.372996586122
100.372885938045
100.372724323735
100.372888631768
100.37274572028
100.372649586784
100.3725074676
100.372359260936
100.372183632852
100.371986560236
100.372097998732
100.371865411999
100.371659087913
100.371444527991
100.371204214051
100.370927258058
100.370654270939
100.370149033059
100.370395945755
100.370737231113
100.371005431768
100.371244610857
100.371480213626
100.37170075108
100.371934305537
100.371754629458
100.371801615016
100.371996028018
100.372188149411
100.37241767546
100.372540690924
100.372716180226
100.372522844071
100.372593486123
100.372784776003
100.372871413556
100.372808648266
100.372734277531
100.372563780003
100.372335368716
100.371977083369
100.371944891553
100.371999800517
100.372400106736
100.372677150569
100.37311937097
100.373501108001
100.373830722198
100.374120441294
100.374328905371
100.374137054701
100.374169194914
100.374304759893
100.374537259611
100.374489311842
100.374634660777
100.37471108309
100.374965464762
100.375323095364
100.375206086158
100.375327039176
100.37538504313
100.375284725143
100.375289956609
100.37523107039
100.375007177185
100.37474634978
100.374619766912
100.374329776746
100.373956809549
100.373689217529
100.373299181473
100.373196843121
100.373078442322
100.373067641356
100.373025565882
100.373101548104
100.373023688644
100.373260926969
100.373133406361
100.373317115589
100.373216409524
100.373195346436
100.373013500563
100.373109422056
100.372982514109
100.372893841094
100.37281211869
100.372714187997
100.372512452607
100.372495567623
100.37232418182
100.372138937781
100.371926252614
100.371716461899
100.371498991355
100.371234417514
100.370947841032
100.370648764304
100.370322162768
100.369932866272
100.369556100468
100.369913026021
100.37029556712
100.370487644894
100.370802975897
100.371098550949
100.371357974905
100.371582353747
100.371812398685
100.372038588348
100.372303481505
100.372492501807
100.37237229164
100.372471722253
100.372602787369
100.372686972935
100.372814334708
100.373018994207
100.37289655055
100.372912403571
100.372986511901
100.373161549239
100.373022169582
100.372996170764
100.372736872409
100.372255247676