/*--------------------------------*- C++ -*----------------------------------*\
| =========                 |                                                 |
| \\      /  F ield         | OpenFOAM: The Open Source CFD Toolbox           |
|  \\    /   O peration     | Version:  v1612+                                |
|   \\  /    A nd           | Web:      www.OpenFOAM.com                      |
|    \\/     M anipulation  |                                                 |
\*---------------------------------------------------------------------------*/
FoamFile
{
    version     2.0;
    format      ascii;
    class       volScalarField;
    location    "0.7";
    object      p;
}
// * * * * * * * * * * * * * * * * * * * * * * * * * * * * * * * * * * * * * //

dimensions      [0 2 -2 0 0 0 0];

internalField   nonuniform List<scalar> 
80571
(
100.259937423325
100.25952038984
100.258979813365
100.261870318686
100.266329498466
100.266357408991
100.266753900293
100.267452752448
100.265282204212
100.265337021188
100.265528780307
100.265412034426
100.265522503735
100.265699077107
100.265451447348
100.265305727333
100.267470078063
100.266744240988
100.266345157514
100.266321126197
100.267028383578
100.267574398818
100.265297283879
100.265610663423
100.265870319871
100.265182481911
100.265182479371
100.265870610607
100.26561091354
100.265297795289
100.267578745608
100.267031812458
100.266322858866
100.266345867946
100.266743725273
100.267468425187
100.265307527371
100.26545303251
100.265698406663
100.265523786606
100.265413761167
100.265530333227
100.265340504924
100.265285102188
100.267452036376
100.266753510682
100.266357990521
100.266331463075
100.26704145529
100.267591021054
100.265302131143
100.265616500046
100.265879420205
100.265191538022
100.265191951624
100.265880387601
100.265617043704
100.265301783569
100.267587277503
100.267038277106
100.262284822113
100.262555300798
100.261908854289
100.261614991767
100.261976949736
100.262251166079
100.262251165506
100.261976610251
100.261613864975
100.261908617513
100.262556432391
100.262285196864
100.261871507107
100.262252300426
100.26297125331
100.26336976255
100.263421924406
100.263551172527
100.263176096545
100.263549456722
100.263612611033
100.26320599823
100.263516436534
100.263411612296
100.263374707721
100.262966748808
100.262260513363
100.26186458133
100.262281037744
100.262548747632
100.26190169365
100.261606867345
100.261968513801
100.262243253874
100.262243415327
100.261969003382
100.261607144924
100.261901801093
100.262548739968
100.262281406036
100.261863545103
100.26225995913
100.262965923652
100.263374538774
100.263410258047
100.263512727169
100.263203627689
100.263609926627
100.263546685586
100.263174169034
100.263547875037
100.263420536946
100.263369724796
100.262970221705
100.262251336039
100.259480779274
100.260507690591
100.25882790008
100.259471800722
100.259789534214
100.259533363252
100.260088840439
100.258195303509
100.258169482549
100.259190696766
100.259190906343
100.258168228756
100.258192861987
100.260088096455
100.259536335954
100.259611603279
100.258980880145
100.259480502832
100.260508410321
100.2606748643
100.261913758565
100.262125501396
100.261015203767
100.260916222534
100.260866473321
100.260923228324
100.262044253894
100.261877031982
100.260665978023
100.26050359067
100.259480900771
100.258979562892
100.259604899333
100.259527211199
100.260080723202
100.258186063071
100.258160897436
100.259183562164
100.2591836674
100.258161176962
100.25818662847
100.260081044493
100.25952658913
100.259605393508
100.258978426131
100.259481257257
100.26050281822
100.260666947327
100.261875999424
100.262036520183
100.260917989357
100.260863533072
100.260913471799
100.261009019057
100.262116982571
100.261912437462
100.260677579363
100.258817711404
100.250759385061
100.251090217369
100.251142790029
100.251336089077
100.251600943177
100.260488756063
100.2591650119
100.259332313808
100.25933167892
100.259162625845
100.260490265346
100.259790433885
100.259466565101
100.259520000668
100.258829646922
100.258812191197
100.258933580498
100.263321439142
100.260578819172
100.260508823108
100.263234891371
100.258927880061
100.258813506885
100.258843536806
100.259445062507
100.259517194195
100.259935988959
100.260781419412
100.261523017214
100.261393110402
100.261930960106
100.264174350367
100.264205576665
100.26279455091
100.261401820785
100.260414510233
100.259802084402
100.259517179713
100.259517136473
100.259801932588
100.260414186993
100.261401278928
100.262793943514
100.264643562731
100.264868414017
100.263361304754
100.261711696802
100.260497691657
100.259657487883
100.259154135098
100.258905891814
100.258905940449
100.259154294993
100.259657793668
100.260498173426
100.261712370157
100.263362338228
100.264868396263
100.264643611676
100.262700289807
100.263006429579
100.262824486038
100.262363719893
100.262137226987
100.261565361727
100.262346000632
100.262079670583
100.260572067198
100.257507061076
100.252185466099
100.250768982319
100.251090900016
100.251157517185
100.251349062063
100.251606384347
100.251606254389
100.251348633582
100.251156500091
100.251090287686
100.250768459087
100.250836294447
100.250823784174
100.249653253229
100.249517217767
100.249591210444
100.24945209263
100.249521119184
100.249582774755
100.249582929145
100.251601442177
100.251336446779
100.251143505096
100.251090864004
100.250759597624
100.250822198334
100.250835025654
100.249655881328
100.249517220137
100.24958978585
100.249467734075
100.249532406371
100.249590294663
100.249590136639
100.24953202314
100.249466176242
100.249589038623
100.249514948283
100.249654989788
100.250098781989
100.250101737371
100.249980742345
100.250021315313
100.249900144606
100.249939768263
100.249936608125
100.249936810932
100.249940100943
100.249521461233
100.249453634764
100.24959195658
100.249519364415
100.2496540603
100.250103279639
100.250100453964
100.249981749551
100.250024515362
100.249908592699
100.249945883325
100.249943765223
100.249943547052
100.249945350392
100.249907068698
100.250023397697
100.249979503821
100.249729339239
100.249775458103
100.249774654662
100.249728774183
100.249799768539
100.2497394499
100.249756811606
100.249744080818
100.249744393231
100.249757374315
100.249741221721
100.249901568463
100.25002229799
100.249982836801
100.249730757942
100.249776690085
100.249777661246
100.249731802589
100.249803073291
100.249745094485
100.249761013821
100.249748765873
100.249748439336
100.249760150245
100.249742876063
100.249801623664
100.248783057346
100.248716412975
100.248753693523
100.248751472672
100.248711741388
100.248781801543
100.248749336879
100.248763315966
100.248772736669
100.248773306824
100.248764372286
100.248751759439
100.248783763617
100.24980107042
100.249970025216
100.248903903841
100.248714589251
100.248754452424
100.248756789416
100.248720387799
100.248784461628
100.248754928575
100.248769732398
100.248778712797
100.248778035629
100.248768304084
100.248751952226
100.247530179364
100.24755757469
100.247503491431
100.247558290279
100.247556409823
100.247499285096
100.247552452303
100.247525261239
100.24753021448
100.247560384065
100.247561368995
100.247531778982
100.247528961549
100.247554706336
100.247505061946
100.247560991748
100.247562480804
100.247508634507
100.24756015895
100.2475347243
100.247539067591
100.247569264241
100.247568110791
100.247537473832
100.246210071582
100.246243877559
100.246266889897
100.246196803622
100.246281738491
100.246279002954
100.246192655307
100.246259652194
100.246234961017
100.246198961984
100.246261515642
100.24626406303
100.246200903857
100.246240869753
100.24626509453
100.246200811765
100.246285440851
100.246287121549
100.246203130484
100.246272949931
100.246248333107
100.246210543676
100.246275327175
100.246272653752
100.24467841889
100.244513530226
100.244638791107
100.244655861085
100.244517926711
100.244695940961
100.24468959326
100.244508787409
100.244646033313
100.244625369171
100.24449982158
100.244660680037
100.244672099928
100.244500970996
100.244633871075
100.244656891534
100.244521107492
100.244698868081
100.24470211067
100.244523816097
100.244664779521
100.244641793165
100.244512674127
100.244686767156
100.242387171755
100.242379895314
100.241929522569
100.242240194896
100.242254350177
100.241960568613
100.242396310943
100.242383263696
100.241938851869
100.242237931783
100.242222004875
100.241910133624
100.242360972499
100.242364207178
100.241913719469
100.242232961185
100.242256357686
100.241957581868
100.242398917949
100.242403856114
100.241962178364
100.242268696921
100.242250786218
100.241934840547
100.237031652935
100.238298716188
100.238287878008
100.237017105543
100.237849881561
100.237850078154
100.237086940838
100.238337625972
100.238304381189
100.237034550352
100.237829180267
100.237826645471
100.236993611183
100.238263082022
100.238265520785
100.236996758468
100.237838800063
100.237859108025
100.237065563307
100.238332719238
100.238339856954
100.237072007352
100.237875140268
100.237865279354
100.231295580719
100.229422425805
100.232295515609
100.232284965956
100.229395170876
100.231261411347
100.231253641045
100.229617010363
100.23245425277
100.232343658291
100.229426956354
100.231233511763
100.231235792205
100.229366023774
100.232251841272
100.232245702328
100.229359233941
100.231266401407
100.231283676331
100.229481699122
100.232394332976
100.232413056363
100.229519789532
100.231301413574
100.240228101347
100.240303262924
100.23844753937
100.240914081177
100.240950425708
100.23870359295
100.240176922209
100.240103256146
100.238603321454
100.240897933907
100.241022696934
100.23849268311
100.240197965768
100.24017631384
100.238654883834
100.240872522359
100.24081875961
100.238377014527
100.240294432785
100.240275173576
100.238604353881
100.241149827808
100.241223652638
100.238978564393
100.275701568945
100.270394755644
100.270743198722
100.27583039222
100.271634313499
100.271665654446
100.275875660057
100.270730490368
100.270321014442
100.275603560097
100.271637884022
100.27163927399
100.275607100998
100.27031103008
100.270656582253
100.275719783144
100.271499760429
100.271500785334
100.275724284895
100.270713435728
100.270379005276
100.275714049558
100.27177244947
100.271769893201
100.309818363883
100.326682265503
100.315439996371
100.325749004506
100.308411793967
100.325083708752
100.314778776105
100.326573245802
100.309166307308
100.309240655
100.326671304275
100.31485844755
100.325083473151
100.325791408413
100.315505847617
100.32671423127
100.343350971874
100.343394068838
100.326668947957
100.309751712627
100.309803430347
100.356751098261
100.38598921711
100.373230816906
100.373325694451
100.382351120279
100.37176048831
100.359548666096
100.315424167323
100.325756798452
100.324945879074
100.308333677986
100.363092565094
100.383938246536
100.364664321616
100.36445941823
100.371137096204
100.380637879507
100.357939057848
100.314587829456
100.326372373833
100.342922442763
100.30896749686
100.30898089414
100.326408810884
100.314631146425
100.324977050002
100.308385502401
100.325785802069
100.315496974338
100.326739882019
100.309842209861
100.343570066887
100.343508325615
100.373473567735
100.382108828187
100.35940458461
100.371597664614
100.364573673705
100.36460487864
100.371320282111
100.358213023944
100.380956718331
100.371729469088
100.371757911011
100.380945206619
100.371325152781
100.364591557212
100.364626549564
100.371632739595
100.382110959656
100.399335014003
100.402158939966
100.407725612284
100.407743430865
100.402326923615
100.394314568027
100.394199391831
100.40893752374
100.414918660818
100.413908577178
100.413943570947
100.413289907947
100.412031261647
100.410167937893
100.399620695594
100.403432920346
100.40188993559
100.391800602895
100.411727854602
100.413324259069
100.412288378667
100.410317761469
100.41033395777
100.411219691093
100.401842639002
100.391096514034
100.401931448125
100.410653953084
100.412598549665
100.415827917732
100.416361498138
100.416324221745
100.416871428749
100.417129745254
100.417145896113
100.417177527338
100.417248155917
100.417314681151
100.417364171387
100.41741560627
100.417468029157
100.417536656703
100.417626272612
100.417767296755
100.418050814854
100.418641271828
100.42001502209
100.422752208767
100.428567644322
100.437387701447
100.454048756852
100.446232841024
100.400325311681
100.356715588631
100.31074996789
100.286068317175
100.301147036913
100.301938674272
100.299747570897
100.299503067015
100.300418628807
100.3015286391
100.302710031562
100.304095200474
100.305635543069
100.307115227043
100.308309937096
100.309106238171
100.309464772409
100.308747922004
100.307817646401
100.306695412195
100.305377997445
100.303807588812
100.302030954402
100.300251730623
100.298669742375
100.297415958949
100.296486402418
100.29582821892
100.295336262792
100.294925313727
100.294591277004
100.294363619064
100.294264143137
100.294316493648
100.294596949622
100.295272512518
100.296628251613
100.298579497456
100.300146649816
100.30062659481
100.300772011552
100.300758016472
100.300800123009
100.300772259088
100.300782394485
100.300792901331
100.300736425294
100.300714348423
100.300652758072
100.300544308324
100.300415460368
100.300641036362
100.300920621564
100.301077718666
100.300986348038
100.300726160659
100.300776206191
100.300798055885
100.30079819389
100.300816789704
100.300818664108
100.300850787331
100.300814370596
100.3008160422
100.30080568343
100.300782614078
100.300776042929
100.300576208727
100.300391025018
100.300659789147
100.300792385203
100.300804796131
100.300834146983
100.300839144659
100.300892380707
100.300864070176
100.300851637036
100.300883720733
100.300915748559
100.301092366961
100.301094032896
100.301267114807
100.301339308171
100.301285530087
100.301164946789
100.300968882842
100.30091231714
100.300937976846
100.300940334672
100.300884970624
100.300881536152
100.300849140882
100.300842824006
100.300646234952
100.300633140181
100.300843285336
100.300911136152
100.300905629346
100.300932595597
100.300944318869
100.300992847317
100.301037827962
100.301045475051
100.301062092719
100.301098800359
100.301338024352
100.301512423524
100.301569896484
100.301549169184
100.301420543578
100.301622968739
100.30167916835
100.301815451453
100.30189589442
100.301859350401
100.301700334317
100.301602669334
100.301427806106
100.301153272636
100.30113467528
100.301082513802
100.301020881756
100.300978093263
100.300968292155
100.300969656862
100.300887893026
100.300897062186
100.300644980505
100.300461068481
100.300776846639
100.30092094164
100.30096244318
100.301017488401
100.301066616817
100.301069184888
100.301137631963
100.301143284825
100.301174071115
100.301226095254
100.301250073812
100.301518478625
100.301698864473
100.301812269355
100.301797787889
100.30181560136
100.301664780662
100.301643676816
100.301428363356
100.301353634703
100.30126956545
100.301219140414
100.301151476715
100.301073543671
100.301115575447
100.301108967949
100.301043430432
100.301010788205
100.300787110078
100.300825368306
100.300989180527
100.30109572685
100.301125547286
100.301166915761
100.301176745953
100.301245481524
100.30130581487
100.30137810277
100.301442815194
100.301699993654
100.30189414703
100.302015523649
100.302037574002
100.301890585574
100.302054230375
100.30203681074
100.302102939069
100.30216751823
100.302136528525
100.302065867723
100.301900504576
100.301706814151
100.301458701375
100.3014204392
100.301408024703
100.301330212521
100.301348646327
100.30125115178
100.301201576317
100.301195268687
100.300979391896
100.301084824485
100.301208504801
100.301290047571
100.301271755396
100.301349394457
100.301368543808
100.301402483071
100.301408805534
100.301475086466
100.301508104535
100.301755344201
100.30195030036
100.302070818609
100.302082619604
100.302071421511
100.301867380259
100.301856572053
100.301621813664
100.301537838194
100.30145664229
100.301438006551
100.301402403872
100.30140226891
100.301416246329
100.301365835618
100.301272724173
100.301323267262
100.30101372479
100.301155095289
100.301260080028
100.301367027911
100.301363967445
100.301421067102
100.301456230669
100.301494308839
100.301477095958
100.301547778077
100.30153336682
100.301611945199
100.301940437723
100.302157362928
100.302286082607
100.302266697927
100.302304537624
100.302354773773
100.302333705718
100.302163804641
100.301949093378
100.301690216371
100.301630940744
100.301532233172
100.301533842256
100.301555322606
100.301484048599
100.301511776706
100.30155371469
100.301486432682
100.301521313014
100.301441179015
100.301213392987
100.301403753886
100.301432401921
100.301485187793
100.301579717297
100.301546278516
100.301659979102
100.301593941637
100.301684378374
100.301674617441
100.301705851102
100.301833124443
100.302061502125
100.302277979672
100.302278537164
100.302225906924
100.302036383258
100.3020748391
100.302271110253
100.302431578123
100.302339397081
100.302449934671
100.302300562376
100.302312224817
100.302325198807
100.30213572526
100.301912066611
100.301785928833
100.301737013245
100.301660741676
100.301650318076
100.301682997546
100.301622509229
100.301636581749
100.301638091302
100.301621753949
100.301571530881
100.301578135891
100.301552830189
100.301207524579
100.301542249246
100.30146314724
100.301398507432
100.30164625197
100.301624114004
100.301665137493
100.30168827992
100.30166462239
100.301714722207
100.301709585755
100.30182073776
100.301895830723
100.30192363209
100.302169875502
100.302356484488
100.30255027665
100.30247046939
100.302603415067
100.302506755466
100.302513156439
100.302496143536
100.302278485287
100.302039496547
100.301961837718
100.301829272519
100.301810001456
100.301833726735
100.30173813942
100.30178742116
100.301713893687
100.30168101498
100.301721276342
100.301619231658
100.301582361051
100.301636109553
100.301275254457
100.300542170942
100.301249731897
100.300694515798
100.299934688432
100.300755492283
100.300216796887
100.299526426498
100.298680934796
100.299929788945
100.299331085435
100.297712194441
100.296188113033
100.295099485334
100.294487143971
100.294241863386
100.29422976765
100.294404436443
100.294704127799
100.295098682691
100.295580843906
100.296218892158
100.297094523746
100.29826173375
100.299744840532
100.301434962409
100.303149118345
100.304703487629
100.306032765447
100.307172217238
100.308127234567
100.308868638751
100.309432609034
100.310004240679
100.310386218515
100.309866951659
100.309168396855
100.308253937641
100.307130782403
100.305802567236
100.304220111732
100.302425218415
100.300612962511
100.298976147431
100.29766002442
100.296692354327
100.296023985009
100.2955306833
100.295136754933
100.294826115828
100.294615496444
100.29451114883
100.294474611015
100.294495670129
100.29473603379
100.295678257263
100.297619723209
100.299580075857
100.300611924751
100.300834126664
100.300818663083
100.300803566032
100.300782510354
100.300735746709
100.300712326858
100.300650934462
100.300608623562
100.300491319789
100.300315285747
100.300044680744
100.300245398425
100.300022542142
100.29960870409
100.299069811317
100.299489923208
100.299956098172
100.300420659346
100.300290581828
100.299925719188
100.300264377703
100.300536462755
100.300839937781
100.300678078965
100.300939501778
100.301167772346
100.300778015448
100.300270525869
100.300647434465
100.300861522749
100.301146051932
100.301558734434
100.301511414339
100.301334664064
100.30106851161
100.300966189971
100.301074308939
100.30120492781
100.301108084463
100.301019851537
100.300813518196
100.300977528132
100.300917668457
100.300873297739
100.300789403612
100.300732451773
100.300704726656
100.300720961651
100.300772063494
100.300781388807
100.300786146597
100.300767774964
100.300745587205
100.300732529623
100.300679791191
100.300642742541
100.300546518243
100.300414774077
100.300297139116
100.300424106787
100.300584512011
100.300664988409
100.300746813697
100.300737281178
100.300744209252
100.300730431962
100.300709930502
100.300641177188
100.300594615492
100.30047766992
100.300290615579
100.300063371238
100.299670791314
100.300072530452
100.299807349058
100.299381650821
100.298738133608
100.297873562808
100.296870299656
100.295482837866
100.296710338348
100.297198978333
100.297852550906
100.298487699185
100.298898296823
100.299251487899
100.299956635826
100.300030682735
100.299802432077
100.29925336349
100.298668069215
100.298160575651
100.297904024182
100.298455591885
100.298801884173
100.299276075576
100.29953649205
100.300149340077
100.300484651752
100.300752006358
100.300793707569
100.300821953155
100.300842377589
100.300835557704
100.300811476705
100.300791553533
100.300789490781
100.300727197292
100.300707284934
100.300636366972
100.300589943641
100.300466981656
100.300286532455
100.29999782696
100.299650641182
100.299138488181
100.298449138877
100.298497040422
100.297581769729
100.296500924769
100.294864170049
100.292863310324
100.29023522882
100.29140042339
100.292710406353
100.293704673015
100.294617075063
100.295963743799
100.296201280233
100.295542086599
100.294948421078
100.293731293814
100.293180264945
100.294790246169
100.295987005155
100.29642439473
100.297734049777
100.299189700932
100.300143739178
100.300448462846
100.300532553123
100.300842721469
100.300818718136
100.300819810888
100.300799840525
100.30079695059
100.300788570381
100.300729243907
100.300707008052
100.300635284632
100.30059277713
100.300478197454
100.300320459022
100.300068889437
100.299738094959
100.299183650344
100.298529370203
100.297559187378
100.296467565634
100.294490064543
100.294533852382
100.29243289781
100.289260896638
100.28532515229
100.280015720345
100.260680039319
100.271293116159
100.281593803074
100.28265739685
100.286829567933
100.288354025284
100.283797475301
100.287246692989
100.28946742946
100.291149728676
100.292649641043
100.293545856377
100.294786272271
100.29495925491
100.294297467668
100.292893192969
100.291564727325
100.2901554854
100.289908137897
100.292183078068
100.294115753109
100.295077244752
100.296831566589
100.297898398088
100.299764197175
100.300414030636
100.300510460809
100.30058173563
100.30078128579
100.300757826055
100.300810771021
100.300817186463
100.300793189592
100.300780781497
100.300808477451
100.300816729832
100.300814679971
100.300795641551
100.300787290284
100.300729654529
100.300709255429
100.300637458694
100.300596297399
100.300482334614
100.300334562342
100.300068875227
100.299756660073
100.299167735915
100.298534666512
100.297568136713
100.296482416765
100.294512875129
100.292378194933
100.289111438612
100.288998852426
100.284580945325
100.278863023029
100.255137325413
100.227791445346
100.16755789356
100.184956898289
100.190935987185
100.194521286829
100.19404988099
100.200049719024
100.197281181473
100.193673675644
100.197964467731
100.202865133749
100.201212006945
100.197038216146
100.20542853267
100.201068362522
100.201317779215
100.208468455014
100.202227947902
100.201226273278
100.209143922096
100.204759671697
100.198223850353
100.207342666099
100.203989051235
100.196916335815
100.205589999073
100.202519367851
100.194944967193
100.205683631432
100.207094008921
100.20455214208
100.203820803472
100.201833624264
100.200337754243
100.199874900405
100.199993603861
100.19993671804
100.200312419865
100.200603101265
100.200608718755
100.200261229698
100.20048561373
100.200650161607
100.200720909663
100.200514431047
100.200387455898
100.200781634746
100.200474563269
100.200317764537
100.20025742209
100.200496310857
100.200609260552
100.199899905867
100.199914029306
100.200568395798
100.200469193309
100.200224208701
100.200330242863
100.200481923064
100.200791237628
100.200390917314
100.200517544986
100.200721821615
100.200651867795
100.200488339461
100.200265177352
100.200613834364
100.200609962036
100.200318788623
100.199940139023
100.199990881147
100.199877216068
100.200344008539
100.201312281249
100.2023361592
100.202356701086
100.201300195076
100.201762619113
100.202717801696
100.202727214779
100.201792297549
100.201848419146
100.201693589994
100.201278276963
100.201890005622
100.202098615057
100.200729776436
100.201242695989
100.200979647991
100.201146681294
100.201585199176
100.200671470655
100.201327209116
100.201849715484
100.201957590101
100.202531117988
100.20079775221
100.201744946149
100.20111220106
100.201017653622
100.200597864367
100.201157208691
100.202914679754
100.201647291976
100.200368231881
100.201584017911
100.20156380835
100.200344826782
100.201144731759
100.20059109087
100.20101265862
100.201121062142
100.201742059044
100.200783181735
100.20254028783
100.201958461241
100.201846153847
100.201324748225
100.200665191749
100.201581787883
100.201143217778
100.200972809815
100.201235978737
100.200720941733
100.20208905564
100.20188565115
100.201272848068
100.201678178932
100.203679452399
100.203119866211
100.203952893057
100.20150068136
100.200081760689
100.20391696791
100.203131331429
100.20256995771
100.203218912347
100.201974037304
100.202871809873
100.200279531699
100.205929903019
100.20520579026
100.205548375788
100.201994080815
100.201160941704
100.20115161559
100.201982116336
100.203816100225
100.20369964821
100.203138407876
100.203234171883
100.202584517714
100.203140623733
100.202990427304
100.201063774874
100.202030942691
100.203227478054
100.204238577908
100.202360702131
100.202692194169
100.20351620403
100.204557529943
100.20207247205
100.201493070533
100.202002021767
100.202097550849
100.202088409598
100.201577333578
100.201836453749
100.202604612522
100.202598599043
100.201830222838
100.201552125155
100.202079844015
100.201995154804
100.202063650397
100.204562176151
100.203512522277
100.202687902178
100.202351203403
100.204236396216
100.203233526585
100.202033354444
100.201059406106
100.202990280862
100.20219919284
100.200939095949
100.201720294957
100.20152305792
100.20247776595
100.200952808191
100.200595002375
100.202810064569
100.203056450093
100.203282424929
100.202966961799
100.20396928988
100.202213255482
100.201825772024
100.203980363701
100.204919194752
100.205059178882
100.204034590512
100.204823101
100.201494428357
100.202642637532
100.204543724445
100.203747228689
100.205247055334
100.204677509209
100.20561768119
100.20462712299
100.201638522066
100.202260757536
100.201869015581
100.200131375428
100.194612047123
100.194476805228
100.188736176951
100.192543611132
100.179870826016
100.172386551611
100.175679960155
100.182364716592
100.163218743928
100.236106480748
100.259266032195
100.222379214738
100.251387235195
100.270486353247
100.278292228921
100.28381453901
100.283838087616
100.279280877856
100.272778677622
100.280285415512
100.283862342308
100.286564631595
100.288648139867
100.2867241423
100.289620416622
100.291067464809
100.292453906199
100.293469759051
100.293419235249
100.291968058731
100.290703748805
100.290327623116
100.291850326832
100.293109755094
100.293737512887
100.29469514833
100.293224143024
100.294353140846
100.292600043736
100.292012724352
100.292324900414
100.29286179261
100.293128358587
100.292177998757
100.291477061036
100.291255597685
100.292409907356
100.290359141588
100.293577889398
100.29327240626
100.293846479051
100.294920653623
100.296736015393
100.296080060659
100.295160272086
100.294227209109
100.293259315108
100.292321643378
100.291744537351
100.290832956828
100.292967686674
100.292275524649
100.292567324037
100.293632878572
100.293080153355
100.293305994204
100.292920088766
100.296691165764
100.297307217634
100.297389277703
100.296980727997
100.296244421983
100.296347433191
100.298565790024
100.300034157759
100.298544453625
100.298053046183
100.298541433535
100.294487258894
100.29415808722
100.295311652748
100.297036387597
100.296326646377
100.298799735338
100.296888631971
100.297252989826
100.297716236289
100.296960056623
100.296305723257
100.295474722747
100.295286443988
100.295716405703
100.29485023808
100.293775226815
100.292761855791
100.291938345508
100.292249230251
100.291246224696
100.290334595612
100.291230142322
100.290128903242
100.290579717658
100.291313602209
100.292800408334
100.294177460274
100.2951133952
100.293953870907
100.293782534272
100.293345161657
100.296473971324
100.293530053717
100.29345450978
100.294287020692
100.295842471598
100.298069408972
100.295686422099
100.297576507601
100.298282833153
100.299742007968
100.300061530462
100.301047828979
100.300152804612
100.299704504668
100.299702774225
100.300983685356
100.300655346257
100.299670480684
100.299766805614
100.297532885354
100.29899934718
100.297874904005
100.296973701913
100.298399211894
100.29771630676
100.298114226298
100.297636937598
100.297782386025
100.297487792619
100.299396378089
100.299946172842
100.300938300755
100.301453815411
100.3015171689
100.301572297066
100.301296216027
100.301326216417
100.300766208273
100.300398109374
100.299866859639
100.299212833909
100.298420096939
100.297229986984
100.295819068643
100.294613638306
100.294056073341
100.295283198579
100.297135680497
100.299240552613
100.300504287709
100.300453246811
100.300454555636
100.300804837369
100.300813469048
100.300817217619
100.300798127386
100.300788226625
100.300725549888
100.30070808086
100.30063693028
100.300591573725
100.300467845605
100.300308019214
100.300004577232
100.299693582419
100.299137447133
100.298451739192
100.297498671034
100.296354671986
100.294504464415
100.292428771379
100.289323408735
100.285441441959
100.280228529444
100.261055023306
100.255504668193
100.228205754767
100.167247559958
100.184868724964
100.190915045908
100.194464409448
100.193954909667
100.199790551883
100.200975211825
100.196864353341
100.205383399991
100.200997022261
100.201233597814
100.208354243897
100.202205330636
100.20118661471
100.209075096695
100.204714642268
100.198202974936
100.207293316719
100.203968131812
100.196882385341
100.205562895655
100.202513661323
100.194930255393
100.205926365938
100.205186081488
100.205591469764
100.205689283226
100.204575155774
100.207135271108
100.201498563542
100.203959443691
100.201979617706
100.203926496614
100.200079082729
100.200948351557
100.202207926031
100.203333371247
100.204011758072
100.203131660179
100.202434069185
100.201038995611
100.201460695087