/*--------------------------------*- C++ -*----------------------------------*\
| =========                 |                                                 |
| \\      /  F ield         | OpenFOAM: The Open Source CFD Toolbox           |
|  \\    /   O peration     | Version:  v1612+                                |
|   \\  /    A nd           | Web:      www.OpenFOAM.com                      |
|    \\/     M anipulation  |                                                 |
\*---------------------------------------------------------------------------*/
FoamFile
{
    version     2.0;
    format      ascii;
    class       volScalarField;
    location    "1.5";
    object      p;
}
// * * * * * * * * * * * * * * * * * * * * * * * * * * * * * * * * * * * * * //

dimensions      [0 2 -2 0 0 0 0];

internalField   nonuniform List<scalar> 
80212
(
100.338434595102
100.33782141878
100.337770437603
100.340527999776
100.344079476375
100.344055335323
100.344372284413
100.344293122962
100.344813557821
100.34632521691
100.345651568805
100.344688630055
100.345002481084
100.346120878338
100.346742390811
100.344963495703
100.344392468059
100.344377963605
100.344058930297
100.344073586479
100.344642335747
100.344870201843
100.345748665844
100.347504218137
100.345910025993
100.343842205966
100.342892495982
100.342713285658
100.343145679364
100.343513083263
100.346122002709
100.345909202687
100.345163424726
100.344779800004
100.343346814289
100.343643561935
100.344370631083
100.343587372255
100.345038210144
100.34700835234
100.346929443062
100.344953626284
100.343538608607
100.344354209544
100.343633152013
100.343331454992
100.344758302767
100.345144211248
100.345880699732
100.346116878978
100.34351151788
100.343147919435
100.342723184468
100.342903611807
100.343853379295
100.345920772236
100.347513408818
100.345756930726
100.34488299744
100.344655432608
100.341563680438
100.341879417864
100.341332774399
100.341573725535
100.341313989614
100.341218146698
100.340781647312
100.340516880451
100.341010733892
100.340958831619
100.341310289707
100.341225093849
100.341012757309
100.341537789269
100.340845683342
100.340394368297
100.340639942634
100.340626185397
100.340698909978
100.340427758961
100.340421216428
100.340691543733
100.340616853382
100.340635547308
100.34040839205
100.34088170587
100.341574019363
100.34104393383
100.341241659703
100.341314305983
100.340953971199
100.34100311033
100.340505635142
100.3407732966
100.341207266441
100.341299459178
100.34156134701
100.341320565357
100.341863838856
100.341549061051
100.340525415401
100.340616980261
100.341801223698
100.342221737571
100.341664501688
100.342301719155
100.34179174492
100.341550988303
100.341713700161
100.342096960271
100.342483654454
100.341724334876
100.342261571024
100.341830060432
100.340631818803
100.337862422812
100.339455167727
100.33701524701
100.337096307362
100.33723605042
100.339949610262
100.338270583898
100.336295890695
100.337358955201
100.338308240301
100.338426020807
100.338130856566
100.339063518271
100.339253770577
100.338141549361
100.338473118613
100.338363416154
100.338319666281
100.338029624383
100.336893007114
100.336272646209
100.338119437408
100.33746256356
100.336502253179
100.336492217436
100.337465076104
100.338093740381
100.336246969746
100.336893902311
100.338081791583
100.338375312112
100.338415400952
100.338501088237
100.338146136565
100.339245399434
100.339054186399
100.33812078443
100.33841601872
100.338296217095
100.337345914348
100.33628045049
100.338257197579
100.339930290084
100.339104115654
100.337762122301
100.337829351395
100.339398303618
100.340543936477
100.338701765134
100.336795362977
100.33755404406
100.338364204209
100.338458213838
100.337749075834
100.336983271292
100.338857282194
100.340639997918
100.337026051522
100.327850316055
100.328411208016
100.328555626902
100.328110277432
100.328951853508
100.337306312924
100.337686574921
100.337717034768
100.338559066301
100.340264026052
100.337671181725
100.336873844764
100.335682916708
100.338898944741
100.336627977132
100.336068170826
100.334736601977
100.335887253529
100.33536841596
100.339294388891
100.339338868889
100.335396248854
100.335971596487
100.335094589193
100.336210895533
100.334689671431
100.337290507105
100.337803164802
100.338323826673
100.336764475258
100.339017746894
100.335709784454
100.336862333123
100.337659328614
100.33728456936
100.33721002312
100.33707346233
100.337009881736
100.337030099333
100.336829596112
100.336803965456
100.328754373354
100.327236834497
100.326949895004
100.327223588081
100.327257899936
100.327027710123
100.327385721712
100.32747867004
100.328835219402
100.328716299591
100.328904254022
100.329937221249
100.335089900485
100.334488215152
100.331123934511
100.329445157541
100.328354476722
100.328443814844
100.330294944594
100.329836936901
100.329801419885
100.330215233379
100.329833187324
100.328816312518
100.32866603696
100.328799539694
100.328927414983
100.328090800063
100.328543679783
100.328412591108
100.327872839873
100.328784939524
100.327239381756
100.327808960526
100.32781493092
100.327795459474
100.327923565305
100.327938920227
100.327870805268
100.327982735229
100.328087173221
100.328260669053
100.327651413227
100.327963632833
100.328217901376
100.328257749311
100.328236713307
100.328525848359
100.328797923842
100.328745597393
100.328314976985
100.328222003695
100.327866818335
100.327590990813
100.327434346886
100.32734951409
100.3269969164
100.327242730498
100.327209399102
100.326936682319
100.327767056861
100.327619917148
100.327635886648
100.327646308296
100.32764696828
100.327757317716
100.327778616724
100.327764606298
100.327836127776
100.327832627711
100.327950568158
100.327826275818
100.327791076526
100.327736173215
100.327839811353
100.327838015457
100.328508233642
100.328146581999
100.328155885047
100.328149427718
100.328214832194
100.328041908779
100.327936920916
100.32783322934
100.327902644501
100.327892230378
100.327715657262
100.326685972627
100.32661568896
100.326657403344
100.326671330604
100.326657799337
100.326747030303
100.326776396976
100.326777178439
100.326873726912
100.326841775955
100.326908150405
100.326830600519
100.326838376903
100.326801279746
100.326843718483
100.326842898689
100.326801409866
100.326832938184
100.327775484344
100.3277800589
100.327897465307
100.32777647221
100.327772186389
100.327707189831
100.327723468607
100.326695521508
100.325502300182
100.325485366012
100.325446410119
100.325497410682
100.325520975789
100.325514275594
100.325587272273
100.325629191848
100.325643069286
100.325758241229
100.325757120825
100.325818948889
100.325788348591
100.325836603543
100.325824790523
100.325854662817
100.325830316178
100.325769009828
100.325755830761
100.325676766544
100.326779864262
100.326841882906
100.326751078951
100.326779326763
100.326689099858
100.32549858879
100.324354945354
100.324344690022
100.324324690476
100.324296084944
100.324360590431
100.324401777
100.324411637276
100.324494483764
100.324555038727
100.324585888279
100.324730771815
100.324761743712
100.324836478635
100.324837575507
100.324912150111
100.324914232996
100.324950522337
100.324925811983
100.324841609314
100.324791164547
100.324674270847
100.324652950746
100.324547405072
100.324501723878
100.323333532069
100.323128539528
100.323113559888
100.323088777372
100.323049962528
100.323150841056
100.32322036534
100.323250189352
100.323367361221
100.32345463895
100.323499411935
100.323695172475
100.323761680025
100.323858513534
100.323887021464
100.324005161625
100.324016830112
100.324088906581
100.324084315086
100.324004339846
100.323912464578
100.323680679494
100.323576069771
100.323428231575
100.322074105712
100.321894956172
100.321614716709
100.321614671474
100.321588396478
100.32150530711
100.321692868485
100.321808088869
100.32185258821
100.322038846634
100.322166393661
100.322197383535
100.322468801926
100.322593841335
100.322733170858
100.322820011203
100.323022835379
100.323026603307
100.323211312284
100.323199092198
100.323004609222
100.322877077203
100.322510508692
100.322297744524
100.320582680234
100.320268037391
100.319942628519
100.319473343714
100.31957251462
100.319578045947
100.319382926265
100.31977223595
100.319956135974
100.319986420696
100.320293687048
100.320457261683
100.32038231538
100.320820738363
100.321041179655
100.321242696397
100.321470212463
100.321903360969
100.321798640194
100.322167063302
100.322109506597
100.321650387971
100.321586748575
100.320968404191
100.318777490563
100.317835872364
100.317381924681
100.31692391871
100.316125652907
100.316415025359
100.316514227076
100.316136515151
100.31699970165
100.317297466662
100.317150052608
100.317744973897
100.31790254629
100.317623658553
100.318353233965
100.31857807907
100.318827876521
100.319533537063
100.320422198027
100.319979840255
100.320831800149
100.320722925746
100.319649795905
100.319916781332
100.318320006263
100.315582544717
100.311881004874
100.312068268447
100.311414730315
100.309729933579
100.310777880162
100.310941170908
100.3102549117
100.312149208735
100.312684325171
100.311988326636
100.313177309906
100.313250374035
100.312285225247
100.313784384116
100.313887568869
100.313422172128
100.316783100283
100.318896136474
100.317470156078
100.319264926355
100.31908350984
100.316927465336
100.314508634738
100.309130749596
100.303714324107
100.302004861518
100.30491014669
100.303987246382
100.300355455847
100.302655279133
100.303134161972
100.301895172092
100.305352583729
100.306426431594
100.304812402341
100.306934609709
100.306736611838
100.304476832835
100.307572712525
100.307880752142
100.304280127864
100.305302723302
100.310286020788
100.315243936821
100.310349764364
100.309014320423
100.308724572203
100.309728633453
100.32345558411
100.324535471498
100.322362648451
100.315822620489
100.316140078803
100.313804900019
100.310528626562
100.312376197327
100.313476186174
100.313685559429
100.316317837483
100.31800905222
100.318350852582
100.319518340305
100.318777823507
100.316566477574
100.31869908417
100.319970002567
100.318998025122
100.324391282294
100.325937254021
100.323878113522
100.329202803053
100.328862369972
100.368023988762
100.36381061127
100.359433250831
100.357508915157
100.35078814515
100.346949365218
100.342992087996
100.345464014967
100.341385312699
100.344468407171
100.347019101681
100.358889240999
100.381006245545
100.38490749594
100.365720289906
100.348701752041
100.344734717831
100.393270813725
100.430330248404
100.414319319434
100.42104848235
100.432582745581
100.418397333142
100.403894703671
100.35535859831
100.352999412797
100.349858386694
100.353781516419
100.349336500123
100.351547284049
100.354349270166
100.359770618543
100.360940674355
100.364237040273
100.368142076795
100.409829887994
100.409994217519
100.425584499723
100.413691472519
100.404776633309
100.39982191067
100.395372111705
100.402076253072
100.382678480044
100.37778188422
100.393036712877
100.382240067053
100.392128755384
100.397322081349
100.403140642
100.41584260036
100.448734797393
100.449448284809
100.457695399331
100.46913902467
100.446699793541
100.446607142997
100.44013623989
100.404602546818
100.392945337755
100.412656204071
100.443680121056
100.462183778028
100.474959851071
100.479320052112
100.480756023423
100.483546468468
100.485414589293
100.486225912985
100.486097216178
100.485631881998
100.485584373747
100.485938157169
100.486471803119
100.487055213875
100.487768332413
100.488570242407
100.489510401316
100.490462242825
100.490984297451
100.490489867242
100.489133273246
100.488508971495
100.487469801839
100.48967858643
100.493491644058
100.511682259897
100.509069617195
100.467001320347
100.425811992727
100.381260349222
100.356321090778
100.372636228252
100.372685952146
100.37093370643
100.371054918377
100.371993463798
100.373006535878
100.374094078133
100.375386475393
100.376833427106
100.378256677846
100.379465487398
100.380324080671
100.380741876323
100.380270678595
100.379689976296
100.378963569313
100.378077821609
100.377001636311
100.375650563256
100.374010753006
100.372203666498
100.370401354614
100.368789288346
100.367462957122
100.366428640614
100.365621246247
100.364990054074
100.364561408732
100.364421217653
100.364644515858
100.365344996114
100.366648151957
100.368424428498
100.370192765802
100.371543867689
100.372079861325
100.372039345018
100.372113611415
100.372107791479
100.372123356607
100.37215534294
100.372169745252
100.37220567373
100.372296589035
100.372496034271
100.372664241865
100.372719982188
100.372790340029
100.372735069477
100.372506830427
100.372384974495
100.372297627115
100.372311060343
100.372471327031
100.372375297273
100.372196634432
100.372135356206
100.37210166248
100.372069735483
100.372077196746
100.372038977041
100.372032971168
100.372036191269
100.371986094085
100.371849807728
100.371906387558
100.371971267058
100.371980199422
100.371984351249
100.37201222977
100.372042026088
100.372059048717
100.372083241979
100.372255776097
100.372013599908
100.372069052886
100.372075246816
100.371938028662
100.371909869186
100.371965619057
100.371963449863
100.37192278783
100.371910212834
100.371899219509
100.371885379699
100.371805115648
100.371757406791
100.371508041425
100.370982805045
100.371483255642
100.371731596139
100.371755220272
100.371816508773
100.371819430169
100.371844032719
100.371851778688
100.37188553717
100.371838433878
100.371930474497
100.372021723627
100.372030170084
100.371871034312
100.371871336679
100.371846002196
100.371753338387
100.371633799971
100.371669704334
100.371603299914
100.37178363233
100.371839256284
100.371839461462
100.371797839637
100.371810692646
100.371769397106
100.371783737703
100.371755213921
100.371759882111
100.371702994268
100.371667305922
100.371432525073
100.370751286609
100.37140568564
100.371640791554
100.371666794949
100.37171269478
100.371701360119
100.371714679101
100.371731380734
100.371739766011
100.371719309171
100.371761758012
100.371720570112
100.371525967117
100.371555491255
100.371657274525
100.371539394035
100.371638931304
100.371551266474
100.371689026485
100.371657305526
100.371695982882
100.37170204363
100.371667011928
100.371694587828
100.371675497263
100.371664105962
100.37163542813
100.371599485549
100.371376029792
100.370674423022
100.37138264136
100.371592765284
100.371619374628
100.371637515156
100.371654805781
100.3716480893
100.371654840593
100.371633532582
100.371581843402
100.37161596487
100.371582258566
100.37155628758
100.371497255806
100.371259811235
100.371118600875
100.371039905425
100.371357293585
100.371211656839
100.371457027918
100.37154212679
100.371570140753
100.371601320608
100.371635963327
100.371629079539
100.3716376569
100.371617195116
100.371602300648
100.371577697197
100.371380314196
100.370608117904
100.371465407296
100.371570389743
100.371597455186
100.371594654968
100.37162139575
100.371591941846
100.371657801866
100.371638984245
100.371558635836
100.371554390511
100.371500640313
100.371357766049
100.371251211031
100.371497655623
100.371562444667
100.371601165207
100.371577067946
100.371526401609
100.371359146709
100.371183984181
100.37073879489
100.370326399762
100.370818959476
100.370802604125
100.371289818931
100.371163009534
100.371424543061
100.371568631495
100.37160818351
100.371663677421
100.371646670636
100.371606346799
100.371574331485
100.371626319043
100.37162375083
100.371572824403
100.371559283578
100.371481654251
100.371231514815
100.370265027316
100.368851372267
100.370549383806
100.371341769503
100.371470017834
100.371555557651
100.37157563109
100.37162448732
100.371622764909
100.371590360581
100.371704813581
100.371719656238
100.37162234338
100.37164322884
100.371600795796
100.371458463089
100.371283134057
100.371573647521
100.371669862032
100.37170303938
100.371730580644
100.371723347379
100.371588204517
100.371299740004
100.370908771099
100.371244775911
100.371599111338
100.37144538711
100.371744013969
100.371817890157
100.371809436911
100.371699301822
100.371774289371
100.371750736932
100.371584894767
100.371566494349
100.371621150865
100.371553383712
100.371550221685
100.371459771383
100.371355605045
100.370678105635
100.369182374055
100.370986925134
100.371410266032
100.371475660046
100.371532178841
100.371630981583
100.371631199478
100.371517144291
100.371468510434
100.37136488037
100.371177131226
100.370604629182
100.369223581268
100.367968130128
100.36995741854
100.370938195345
100.371220728347
100.371364768716
100.371466381568
100.371527525042
100.371588247352
100.371729901907
100.371787131815
100.371733757455
100.371849551634
100.371860083913
100.371777902457
100.371663862058
100.371877602864
100.37191272415
100.37185740144
100.371836895832
100.371936114357
100.371855441044
100.371614669365
100.371187996544
100.371669315465
100.371791107154
100.371943118598
100.371906600871
100.371962948497
100.371869220415
100.371697717225
100.371765794182
100.371789946563
100.371576118007
100.371555747278
100.371568712731
100.371566021044
100.371444425449
100.371356899264
100.371227329807
100.371077269589
100.370273497184
100.368913295677
100.370814536993
100.371166454951
100.371228434334
100.371355299755
100.371424378714
100.371539892006
100.371480210678
100.371456396321
100.371470935107
100.371734133588
100.371710977219
100.371772102784
100.371886529926
100.371862674773
100.371643866716
100.371117231529
100.371594108518
100.37163735798
100.371824064351
100.371820373606
100.37185129977
100.371763723805
100.371614117191
100.371665411856
100.371508797801
100.371456605635
100.371364998935
100.371350733155
100.371250083361
100.371136717771
100.371028366738
100.370680390271
100.369206238003
100.368269769766
100.370217954824
100.370984036748
100.371067726237
100.371181954713
100.371280766432
100.371311167301
100.37139287199
100.371429922341
100.371644809164
100.371655428296
100.371706607354
100.371819312412
100.371796187106
100.371551906668
100.371048499613
100.371549205599
100.371797558015
100.371754519948
100.371809086929
100.371806870131
100.371711221333
100.371603530815
100.371614558753
100.371474650799
100.371398216488
100.371336182917
100.371264766119
100.371224907321
100.371117840243
100.371056406549
100.370511813093
100.369527256824
100.370954373053
100.371111967954
100.371170091646
100.371213536547
100.371318337605
100.371343028197
100.371396453458
100.371610847396
100.371594769991
100.371583631175
100.371551086507
100.371696674064
100.371809124907
100.371823059881
100.37161125728
100.371047566049
100.371546170058
100.371777061915
100.371784372693
100.371683312391
100.371656353656
100.37179923357
100.371781950274
100.371534945905
100.371073828152
100.371593534447
100.371654731953
100.371807903481
100.3718205718
100.371792200519
100.371693808393
100.37157998049
100.371581286856
100.371618536873
100.371447938101
100.371365234689
100.37134613033
100.371328237319
100.371288727475
100.371217748542
100.371146326914
100.371020892587
100.370986080721
100.369877143688
100.36911883152
100.370809066254
100.371096437052
100.371107679153
100.371184004692
100.371263605292
100.371331776514
100.371368176655
100.371355834232
100.371369773198
100.371415862907
100.371591471393
100.371568343811
100.371600047948
100.37157120919
100.371698729509
100.37181169507
100.371851675982
100.371722370933
100.371208478515
100.371633856852
100.371814513116
100.371787139858
100.371664893618
100.371638678435
100.371787724562
100.3717935661
100.371613424913
100.371160486938
100.371604069159
100.371702221377
100.371761279284
100.371862354934
100.371782908837
100.371677218971
100.371593461066
100.371571442481
100.371612451762
100.371477680313
100.371403288971
100.371365790375
100.371350099797
100.371267241726
100.371208782339
100.3711057492
100.371025705476
100.370790391849
100.369593571256
100.369170706224
100.370649658493
100.371087184287
100.371122210559
100.371217204818
100.371292570733
100.371339505978
100.371389364146
100.371437522915
100.371383596531
100.371357173807
100.371305560801
100.371257405
100.371178711352
100.370877526083
100.370609133221
100.371178466116
100.371269141609
100.371352749885
100.371386856506
100.371413307144
100.371472149964
100.371464720497
100.371626789155
100.371551646956
100.371619490734
100.371581577812
100.371666809925
100.371768612505
100.371831025822
100.37161921829
100.371631143716
100.371675720302
100.371574592283
100.371623641478
100.37170862694
100.371695794556
100.371535733634
100.371167019736
100.37138855034
100.371574020469
100.371619296316
100.371547868569
100.371568362991
100.371545026157
100.371473765903
100.371449617969
100.371501439742
100.371429734975
100.37142261628
100.371376480315
100.371353941297
100.371355047232
100.370864807792
100.371014089585
100.371364842319
100.371365350148
100.371454231742
100.371463385632
100.371473139946
100.371521972922
100.371484514748
100.371595499261
100.37157801029
100.371581585949
100.371654503094
100.371612571833
100.371467263785
100.371107362785
100.371379926028
100.371541458427
100.371595843978
100.371539582327
100.371555085769
100.371523850549
100.371517855167
100.371486905814
100.371528122299
100.371496873862
100.371510245731
100.37149003725
100.371484462646
100.37146855294
100.371067565604
100.371444282086
100.371465294727
100.371480386671
100.371552975785
100.371535294513
100.371532752071
100.371526469894
100.371539408877
100.371525524279
100.371588004618
100.371569115849
100.371632087128
100.371580576536
100.371477027249
100.371126140076
100.371426835213
100.371550083664
100.371607437936
100.371555286768
100.371562381184
100.371588373769
100.371580036752
100.371623243796
100.37158129003
100.371558908545
100.371263766164
100.37149206986
100.371592991415
100.371619728389
100.371573529446
100.371584889608
100.371550840306
100.37153454112
100.371561428303
100.371549900691
100.371554686091
100.371572046502
100.371577981741
100.37160913002
100.371577287607
100.37125202631
100.371517420034
100.371539446946
100.371617223646
100.371624250846
100.371596141311
100.371582401871
100.371568885766
100.371572174893
100.37157201604
100.371599503627
100.371580557949
100.371642619601
100.371676261009
100.371712121881
100.371528806642
100.371677246537
100.371690526452
100.371649205987
100.371588159004
100.371604630601
100.37162015133
100.371599879294
100.371699924659
100.371781654199
100.371876983552
100.371751126704
100.371832570751
100.37178475944
100.371722520749
100.371603792204
100.371631919643
100.371605212094
100.371588511731
100.371599399006
100.371604748011
100.371631246293
100.371641318441
100.3716436887
100.371687076824
100.371690235284
100.371577255044
100.371647875951
100.371664781774
100.371191930927
100.371315376657
100.370237743024
100.370586433119
100.369130203487
100.369798584418
100.368309903131
100.367238852569
100.367924113245
100.367005713966
100.367954799162
100.367066645168
100.3664020646
100.367347536243
100.366700533508
100.366307130264
100.367427104874
100.367207843816
100.367151308868
100.368764387453
100.368948259291
100.369153352524
100.369441281405
100.369780756243
100.371156978003
100.370875226412
100.371280940994
100.371649493992
100.37188555738
100.37228758386
100.372173545177
100.372254853402
100.372287482509
100.372320249695
100.372346301184
100.372392485807
100.372454385727
100.372639798705
100.372831164247
100.373030188547
100.373111352544
100.373125012313
100.372964793988
100.372876462345
100.37267063331
100.372403053094
100.372303329881
100.37236549122
100.37244474374
100.372704040451
100.372466335246
100.37233306814
100.37224865353
100.372054527042
100.371804285211
100.37143409792
100.371100124933
100.371238921751
100.371316442829
100.371188671762
100.370975564938
100.371072294837
100.371170930556
100.371412953031
100.371555609724
100.371487733967
100.371537184683
100.371656611051
100.371616158041
100.371675096468
100.371643280067
100.371860844073
100.371756795632
100.371811720017
100.371876167816
100.371945934797
100.372039922831
100.372115677869
100.372190991415
100.372217758299
100.372252092225
100.372280332875
100.372304600898
100.372427168883
100.372656085009
100.372856423732
100.372950741674
100.372973079856
100.372767067865
100.372528710476
100.3722176281
100.372182202133
100.372210417949
100.372208542855
100.372288669143
100.37248969735
100.372574750331
100.372764526333
100.372950649064
100.373145904185
100.37324687549
100.373264761454
100.373163065829
100.372950641372
100.372710514634
100.372562160276
100.372155745512
100.371731263777
100.371315531401
100.371421509551
100.371555967732
100.371483596116
100.371356378438
100.37126705826
100.37050953581
100.37004614951
100.369906103885
100.369831834414
100.369673161439
100.36981805335
100.37019712713
100.37037627902
100.370431851967
100.370077923582
100.370444051038
100.370685859732
100.370766876463
100.370518653671
100.371593745288
100.371844920607
100.371836912925
100.371941497689
100.371979770139
100.372090463054
100.372149400959
100.372135590043
100.372177616
100.372146196008
100.372230098726
100.372271950139
100.372320107039
100.372369606185
100.372399221909
100.372423173479
100.37251818495
100.372585917798
100.372677099312
100.372868030378
100.373077977252
100.37329882523
100.373394428151
100.373408488432
100.37333105671
100.373121705474
100.372871122859
100.372475478969
100.372054832339
100.371626558568
100.37146732048
100.37078592999
100.370446829503
100.37029915992
100.370178651736
100.370054780454
100.369808985213
100.369835080054
100.370189207289
100.370448011216
100.37050954377
100.370646433363
100.370341288405
100.370710559629
100.3709502961
100.370726168465
100.371341075608
100.371829683455
100.37219685521
100.372312088725
100.372285676699
100.372275135706
100.372388101587
100.372451889528
100.372487383442
100.372579962297
100.37261168577
100.372676003887
100.372755464576
100.372971970284
100.373201057746
100.373414755678
100.373517182364
100.373537687082
100.373455885472
100.373253253827
100.372991358003
100.372613165275
100.372192799921
100.371746648084
100.371103291127
100.370823570816
100.370666625496
100.370332997421
100.37009251407
100.370001207468
100.369815446943
100.369589731801
100.369822766189
100.370080358569
100.36978573385
100.369675279503
100.369446823565
100.369156023608
100.368890544315
100.368689006913
100.36853985578
100.368464143895
100.368721204049
100.368969416324
100.3691716569
100.369426119612
100.369624619129
100.369280805793
100.36936375719
100.369626479737
100.36968339046
100.370472281366
100.371038852807
100.371771366656
100.372079895223
100.372157131895
100.372251095426
100.372262305385
100.372459059459
100.372430357121
100.372389353396
100.37245814988
100.372534107573
100.372614089792
100.372663628064
100.372688018756
100.372764148287
100.37286599804
100.37310879779
100.373342807654
100.373547928986
100.373656981367
100.373675250467
100.373602455581
100.373397577692
100.373136411981
100.372745461001
100.372334555099
100.371904076018
100.371261925367
100.370996728224
100.370718595121
100.370512645962
100.370472592186
100.370219570869
100.370049993466
100.370324199997
100.37006742694
100.369821717649
100.369577610658
100.369250122721
100.36894718905
100.368493213495
100.368747769842
100.369150820533
100.369438319939
100.369583499579
100.369813003126
100.369801536359
100.369652199948
100.368950171171
100.369217159109
100.369448084427
100.369518854191
100.369592372656
100.369158344121
100.368649596377
100.368008455787
100.367397086698
100.36622026838
100.366172143132
100.366750375926
100.367436296456
100.368000819378
100.368545586547
100.369058878713
100.36995780059
100.367686280712
100.367210556737
100.366905579618
100.36665857054
100.366262640421
100.366019165232
100.365129867442
100.364202267738
100.361836512505
100.365227063735
100.366476833737
100.365521054449
100.364253289755
100.363307696646
100.3615158705
100.359894431502
100.360865725381
100.361868737223
100.363655779329
100.363601515356
100.364203995557
100.365274217549
100.366338955425
100.366990795091
100.367710429752
100.368301958401
100.368921837018
100.369427681618
100.36991429892
100.369550129656
100.370332411047
100.368375497295
100.372995952346
100.373038633142
100.37278980054
100.372429228029
100.371937921891
100.37117450622
100.369951050911
100.368489618607
100.36754157979
100.366498660611
100.36827757535
100.368454266017
100.366470582823
100.363482348589
100.361713223664
100.360755801419
100.352443494572
100.354819649285
100.35560181211
100.357281901316
100.359853950498
100.361557666242
100.366130325615
100.368261130377
100.370327466595
100.370345705191
100.370636835487
100.369151567328
100.369551197494
100.369918822265
100.370368797069
100.370642276034
100.371137649849
100.372204379885
100.372473222735
100.372534773026
100.372380140173
100.372528203911
100.372603360436
100.372694909873
100.372750700319
100.372766838098
100.37286927135
100.372961331768
100.373177761797
100.373422183377
100.373633250088
100.373750039195
100.373772421578
100.373711719567
100.37348975711
100.373237226503
100.372819378317
100.3724053604
100.372001982046
100.371385559803
100.371142804721
100.370861720352
100.370700560467
100.370665651908
100.370537483451
100.370775947838
100.370580236576
100.370629167659
100.3707396528
100.370877982099
100.370668732047
100.370492555081
100.370140480821
100.370268545549
100.3705033853
100.370374134712
100.37011031158
100.369741903594
100.370162776854
100.369776248495
100.369414452831
100.36906870615
100.368683699983
100.368265328497
100.367884019289
100.367239211759
100.367576619848
100.368076451142
100.368491021683
100.36875512856
100.369093289808
100.369438834626
100.369423055695
100.369197868036
100.3687130508
100.368278696915
100.368113021087
100.368590571447
100.368689114632
100.370055544242
100.370997480045
100.3713376147
100.37165138965
100.372613236549
100.372739744147
100.372631246829
100.372507138536
100.372673568879
100.372759505521
100.372813084034
100.372840545518
100.372961971166
100.373043012097
100.373224536522
100.373511226
100.373730315352
100.37384059259
100.373856791524
100.373810005258
100.373586243553
100.373338667029
100.37293879773
100.372566725377
100.37212805249
100.371575494998
100.371316239149
100.370914958315