/*--------------------------------*- C++ -*----------------------------------*\
| =========                 |                                                 |
| \\      /  F ield         | OpenFOAM: The Open Source CFD Toolbox           |
|  \\    /   O peration     | Version:  v1612+                                |
|   \\  /    A nd           | Web:      www.OpenFOAM.com                      |
|    \\/     M anipulation  |                                                 |
\*---------------------------------------------------------------------------*/
FoamFile
{
    version     2.0;
    format      ascii;
    class       volScalarField;
    location    "0";
    object      p;
}
// * * * * * * * * * * * * * * * * * * * * * * * * * * * * * * * * * * * * * //

dimensions      [0 2 -2 0 0 0 0];

internalField   nonuniform List<scalar> 
80571
(
100.002330144857
100.000881364676
99.9921256263316
99.984489305067
99.9880808258202
99.988352111225
99.9904292996437
99.9926282822075
99.9951833535103
99.9908954428626
99.9891723627165
99.9908171939173
99.9909729218571
99.9892680066066
99.9909617284875
99.9952346131951
99.9926912367607
99.9904880578281
99.9884104674198
99.98813351909
99.9898417004977
99.9918309942452
99.9940069603953
99.9896251283588
99.9877805569238
99.9894494230357
99.9894495160254
99.9877811023484
99.9896260284928
99.9940080012896
99.9918332352191
99.9898451370443
99.9881386269092
99.9884135180886
99.990489687672
99.9926924869224
99.9952357647399
99.9909616833762
99.9892681174512
99.990975299093
99.9908205936243
99.9891796380144
99.9909034917719
99.9951908417347
99.9926355763547
99.9904353916185
99.988354186379
99.9880840244874
99.9897761541911
99.9917554331077
99.993926064357
99.9895428032476
99.987695100493
99.9893610349713
99.9893597120587
99.9876949717381
99.9895430155354
99.9939249100883
99.9917525852392
99.9897710485865
99.9883872569632
99.9911743162522
99.9939726506695
99.986310408658
99.9797456549895
99.9872567664671
99.9872568031251
99.9797436795392
99.986305497651
99.9939700299786
99.9911782549763
99.9883937970946
99.9844957710218
99.9846449280793
99.9889269114902
99.9920287421498
99.9952834358703
99.988014432609
99.981730167255
99.9891488344921
99.9892551129999
99.9818497347453
99.9881272935568
99.9953440709761
99.9921163425517
99.9890107861834
99.9847315750003
99.9845638874982
99.9884742818679
99.9912591313795
99.9940627978454
99.986397892566
99.9798372453691
99.9873523067036
99.9873521563079
99.9798359439559
99.9863977505192
99.9940628082855
99.9912591303545
99.9884737862436
99.9845621979502
99.9847289430914
99.9890090618749
99.992115479042
99.9953438133236
99.9881281028753
99.9818507012902
99.9892538818649
99.9891469466312
99.9817232137972
99.988005518052
99.9952752890045
99.992018474698
99.9889173689315
99.9846366248768
99.992277846143
100.001654659103
100.014499816381
100.014468547097
100.010193841321
100.001777466666
99.9984409129103
99.9917350730996
99.9851419467227
99.9906882259149
99.9906876820534
99.9851341451348
99.9917236768638
99.9984369545346
100.001781341233
100.001293021192
99.9921313439089
99.992284754334
100.001663414597
100.002487354125
99.999580523309
99.9937210107741
99.9876072086135
99.9930648244414
99.993072058444
99.9876638972268
99.993788986051
99.9996450162318
100.002558936272
100.001731216846
99.9923616642389
99.9922014523474
100.001371666688
100.001860481616
99.9985298535916
99.9918263323154
99.985237963707
99.9907903886601
99.9907895077374
99.9852367342906
99.991825904409
99.9985297412593
100.001860081942
100.001370481913
99.9922002395759
99.9923600372814
100.001730131179
100.002558208425
99.9996456097772
99.9937912861163
99.9876664549264
99.9930716772921
99.9930632496204
99.9875975877523
99.9937079843679
99.9995730395037
100.002478325492
100.010242068209
100.012271016406
100.011924422201
100.011964735824
100.012416557016
100.013419695583
100.015113397933
99.9953857148413
99.999502546068
99.9995027137767
99.9953746981792
100.015114225235
100.010195830327
100.014471741392
100.000887153799
100.014503395027
100.010243811425
100.014718882796
99.997142566541
100.001266412559
100.001279347579
99.9971729773046
100.014723812116
100.0102868473
100.014564851715
100.014530262957
100.000954062811
100.002408169114
99.9894733488418
99.9827913124442
99.9828479764993
99.9789494718958
99.988182982085
99.9885191680766
99.9958846474741
100.003419134101
100.009809333812
100.012122802529
100.013398785396
100.013398704535
100.012122513884
100.009808220269
100.003417325845
99.9958831076455
99.9918030356024
99.9923054149046
99.9984283459899
100.007250296769
100.010062311519
100.013136936564
100.014003318476
100.014305648933
100.014305702332
100.014004020988
100.013137764453
100.010063596831
100.007252022674
99.9984302641713
99.9923069194537
99.9918043532941
99.9849258374365
99.9830870992004
99.9851892445671
99.9852171764564
99.9845921148025
99.9873088438512
99.9841744340824
99.9976766056495
100.00291926556
100.008972863544
100.010591853542
100.012287766156
100.011950046936
100.012002021894
100.012456371276
100.013454808786
100.013454374551
100.012455253883
100.012000519417
100.011947876204
100.012284998007
100.013147430811
100.013141389328
100.012787171531
100.01271571373
100.012073851949
100.012065032754
100.01267809361
100.012669652837
100.012670330927
100.013421587383
100.012418402776
100.011966317684
100.011926039971
100.012272296644
100.013141905612
100.013149808214
100.012790281435
100.012725418768
100.012085808314
100.012079380272
100.01269274204
100.012684335586
100.012683686121
100.012691304267
100.012077189848
100.012082821276
100.012721918798
100.012786842
100.0130651522
100.013066169564
100.013160982105
100.013171616947
100.013152186261
100.013115085215
100.013000108015
100.013000264474
100.01311594262
100.012679381007
100.01206649056
100.01207595619
100.012718189792
100.012790024628
100.013069359537
100.013068639443
100.013165690822
100.013176464499
100.013155690653
100.013117442034
100.0130027234
100.013002105533
100.013115765446
100.013153027322
100.013173233353
100.013162092475
100.014657523394
100.014623475514
100.014625173101
100.01466126793
100.014787283823
100.014777944093
100.014637563436
100.014596512418
100.014596513071
100.014637851725
100.014778787349
100.013153743797
100.0131735247
100.013163575774
100.014663743045
100.014628333624
100.014627220532
100.0146613601
100.014786316268
100.014777100153
100.014637176103
100.014596040375
100.014595359659
100.01463527396
100.014774157049
100.014782781777
100.016605324226
100.016546922051
100.016522142935
100.016524491473
100.016551621857
100.016610754015
100.016606464174
100.016541218279
100.016512177903
100.016511892229
100.016540723504
100.016606096062
100.016610774239
100.014788772379
100.014913652288
100.016657061098
100.016552733071
100.016526485137
100.016524704461
100.016550072589
100.016608438727
100.016604162422
100.016539636937
100.016510692258
100.016510162974
100.016537889649
100.016601393648
100.018495922442
100.01849745768
100.018474734805
100.018453582635
100.018455520343
100.018479103283
100.018502289634
100.018500742424
100.018474802118
100.018449493275
100.018448725215
100.018473108637
100.018498540669
100.018499715067
100.018476690135
100.01845425388
100.018452825543
100.018475234356
100.018498358798
100.018496989287
100.018471593137
100.018446977195
100.018447173331
100.018470934904
100.020409028904
100.020433369053
100.020433319983
100.020409768949
100.020379629433
100.020381025309
100.020413475383
100.020437212148
100.02043686186
100.020411935574
100.020376285268
100.020375088062
100.02040850564
100.020431889443
100.020430646148
100.020405957557
100.020373520443
100.020372884348
100.020403982998
100.020428270204
100.020429217746
100.020406124941
100.020372571927
100.020373859992
100.022390788966
100.022475166057
100.022539197349
100.022537632412
100.022473134771
100.022397940705
100.022398913214
100.02247487229
100.022538430829
100.022538693365
100.022475529506
100.022393824156
100.022392718028
100.022470836743
100.022530543502
100.022526982531
100.022460208223
100.022380953494
100.022380579942
100.022455783643
100.022520293704
100.022523456181
100.022464827669
100.022388561398
100.024599764927
100.024602645796
100.024771995318
100.024895518979
100.024895219302
100.024769178172
100.024613134917
100.024612807183
100.024767764406
100.024888733235
100.024888116454
100.024768421044
100.024603822659
100.024603014533
100.024763540071
100.024878216081
100.024874497577
100.024746440551
100.024585220764
100.024585214994
100.024741762603
100.024866266025
100.024869630563
100.024755977162
100.027300040917
100.027212963341
100.027219465065
100.027309272082
100.027374444704
100.027386269513
100.027338728993
100.027244755065
100.027229264889
100.027312420031
100.027365838823
100.027361707531
100.027300798473
100.027211361009
100.027208947906
100.027297323078
100.027354977218
100.027352514606
100.027293910373
100.027204784928
100.02720468586
100.027295478082
100.027355353215
100.027357192634
100.033390059733
100.034136772909
100.03450818293
100.034507966204
100.034133706026
100.03338079199
100.033404418824
100.034176569214
100.034511066866
100.034505314743
100.034161743858
100.033388507597
100.033373585576
100.034126193427
100.034498847227
100.034496740349
100.034120925006
100.033376483753
100.033382024615
100.03416503208
100.034504231382
100.034505167711
100.034170862234
100.033397492434
100.050185974753
100.050217880168
100.053754748429
100.054363068878
100.054356379926
100.053749626661
100.050208752903
100.050159448897
100.053652782389
100.054252808756
100.05426426693
100.053671712166
100.050167875778
100.050205230146
100.053744316139
100.054348434586
100.054350177838
100.05374103212
100.050206234956
100.05017699019
100.053681120124
100.05427693793
100.054281442368
100.053689677679
100.088373519273
100.077091711345
100.077106364753
100.088462138563
100.086131832333
100.086132897885
100.088480338262
100.077113922713
100.077077463482
100.088384128313
100.086007022829
100.085988469014
100.0883691135
100.077078588919
100.077102893573
100.08845960798
100.086111190908
100.086114544564
100.088454535373
100.077097346772
100.07709171739
100.088361347514
100.085966805417
100.085973819917
100.122865390627
100.140480492044
100.127817522841
100.147358749846
100.11481149939
100.147335779657
100.127750229451
100.140381779999
100.122965560586
100.122968700319
100.140393463004
100.12779380556
100.147390516936
100.147402977389
100.127882777877
100.140528446187
100.158754770136
100.158766201197
100.140535824303
100.122911935003
100.12292575678
100.148323960726
100.184027090287
100.184421295305
100.184415616028
100.195704512401
100.185029663676
100.164936026507
100.127856671638
100.147366871357
100.147351249399
100.114805050882
100.147088610932
100.178197462776
100.174155117528
100.174053587118
100.184884799983
100.195522293199
100.164787120569
100.127767480449
100.14039423385
100.158515626719
100.122952505188
100.122951975634
100.140369784391
100.127742314236
100.147321988802
100.114801477282
100.147355114882
100.127814277037
100.140482470528
100.122861738283
100.1586858448
100.158689551776
100.184413942298
100.195724667724
100.164885599916
100.184936966546
100.174046921669
100.174042442387
100.184912595729
100.16478843405
100.195620034838
100.184106002255
100.184069043718
100.195517952032
100.184891409105
100.174074876028
100.174188916854
100.185056771119
100.195722987734
100.212267725761
100.217177370178
100.2251344496
100.225136619374
100.217178037887
100.206530462331
100.206536450693
100.218527071173
100.233564889876
100.235609361662
100.235606862178
100.239054452425
100.235181497141
100.226978136868
100.212261699194
100.221092735614
100.221919182658
100.201661781072
100.217933970332
100.231590381612
100.231212189288
100.230181205598
100.230226708558
100.231353064404
100.221147605084
100.201590865027
100.221940278541
100.217932404729
100.231637922036
100.244218567162
100.253265065327
100.259775601901
100.264684957799
100.268323398165
100.270863553961
100.272441980669
100.273360934332
100.273920745755
100.2743161638
100.274644816536
100.274948449531
100.275242234568
100.275531205009
100.275812979416
100.276080061099
100.276321667381
100.276520399809
100.276656998424
100.276719357354
100.276689213724
100.276495577114
100.275964088533
100.275703893801
100.275405560999
100.275081699677
100.274608915468
100.274247691982
100.274297448396
100.274666602028
100.275121620439
100.275564831159
100.275953494068
100.276276273433
100.276534021739
100.276730319761
100.276867757999
100.276949601777
100.276986055341
100.276996187277
100.277017278659
100.277045831189
100.277083179046
100.277130232729
100.277187327488
100.277254133665
100.277329646513
100.277412225326
100.277499637366
100.277588975962
100.277676260969
100.277755883296
100.277819527746
100.277854151206
100.277838377184
100.277739345159
100.277511849472
100.277105882252
100.276490153798
100.275728521989
100.275057732453
100.274793858387
100.274937586533
100.274986794419
100.274962995081
100.274928826541
100.274867607979
100.274830900741
100.274785684698
100.274740204555
100.274677660706
100.274591754473
100.274484964714
100.274337490601
100.274429854477
100.27453649696
100.274635550394
100.27463512408
100.274559979442
100.274651607074
100.274725949961
100.274784754867
100.27483478555
100.274832448931
100.274871550845
100.274916759086
100.274914127789
100.274958119428
100.274993356312
100.275027564174
100.274986791325
100.274940695337
100.275058521068
100.275074842683
100.275038151781
100.274996365357
100.27495674689
100.274912143217
100.274871087864
100.274826211707
100.274777950791
100.274713320053
100.274774183761
100.274704498634
100.274800221016
100.274889963904
100.274842299412
100.274881645578
100.274827801065
100.274871454076
100.274915683935
100.274955081199
100.274997025273
100.275039599735
100.275084565569
100.275128576541
100.275120099639
100.275144125595
100.275185837415
100.27518204673
100.275133938149
100.275085680526
100.275044017245
100.274998228542
100.274958132746
100.274915808635
100.274966298467
100.275022917533
100.274984634462
100.274931122496
100.274844253184
100.274768282122
100.274680814638
100.274800441606
100.274878277211
100.27499019612
100.275075756041
100.275036334235
100.274942117678
100.275004972121
100.275052313436
100.275090576593
100.275119357159
100.27505655792
100.275098543205
100.275139147894
100.275197238473
100.275237284282
100.275280861945
100.275347124867
100.275372893543
100.275565981017
100.27549687832
100.275448075312
100.275367863556
100.275303062818
100.275256310983
100.27519621101
100.275158947929
100.275185748693
100.275249419219
100.275212025174
100.275160430114
100.275120947918
100.275080650891
100.275150562254
100.275141939174
100.275220102462
100.275257715015
100.275188413087
100.275222348686
100.275269366012
100.275312397583
100.275362237364
100.275296572583
100.275268448456
100.27534098275
100.275377141533
100.275444162289
100.275532718989
100.27556962706
100.275686815137
100.275648096378
100.275607219399
100.275518310448
100.275457357456
100.27540642622
100.275469502937
100.275427174133
100.275382456111
100.275352582882
100.275322881701
100.275279852562
100.275218662781
100.27516570337
100.275114876127
100.2752114782
100.275281199577
100.275377555335
100.27545113994
100.275402847175
100.275314504937
100.27535938819
100.275395258603
100.275426032937
100.275450912907
100.275490384195
100.275527953143
100.275586887522
100.275529420936
100.275585887715
100.275665940792
100.275696886347
100.275787216658
100.275745165565
100.275712909022
100.275637000885
100.275694981328
100.275660055104
100.275621248622
100.275579447979
100.275546345756
100.275499500092
100.275466030007
100.275435745291
100.27550204011
100.275507051472
100.275565557083
100.275592263192
100.275530938503
100.275557555777
100.275595590135
100.275633634998
100.275674942842
100.275710648718
100.27576052905
100.275809511596
100.275749866417
100.275815572502
100.275898063316
100.275935509675
100.276082040681
100.276001309836
100.27595099138
100.275877005072
100.275917519321
100.275858340995
100.275810340157
100.275757479762
100.275723795876
100.275687781604
100.275667879759
100.27564637537
100.275618571827
100.275578058694
100.275561045858
100.27563717219
100.275697233789
100.275655471797
100.275680914352
100.275703029882
100.275725781809
100.275763856632
100.275744917941
100.275796494895
100.275836123975
100.27581742747
100.275871538863
100.275906907955
100.275960013785
100.276027620769
100.275994302449
100.2760293919
100.276094229356
100.276055829061
100.276095367192
100.276042311895
100.275998484179
100.275953680831
100.275908631044
100.275879030059
100.275844655239
100.275825443482
100.275794814719
100.275754620446
100.275732420133
100.275739235091
100.275782025122
100.275804962081
100.275851835326
100.275826751519
100.275796468732
100.275797206565
100.275847922089
100.275886033467
100.275924331122
100.275878746699
100.275899759379
100.275917656957
100.275874464101
100.2759133424
100.275896830873
100.275941408899
100.27597663269
100.275961001099
100.276009236972
100.276038434919
100.276081973893
100.276133328964
100.276180018967
100.276150758116
100.276162144786
100.2762513549
100.276199827818
100.276229777013
100.276207351582
100.276159664568
100.276119110057
100.276083574163
100.276043998366
100.27601263818
100.275977062878
100.275946850653
100.275957083037
100.275995790483
100.275978540625
100.275959856848
100.275934288957
100.275937678967
100.275978819263
100.276012496801
100.276048023918
100.276004838091
100.276022061849
100.276040903506
100.276071913104
100.27606026647
100.276015189264
100.276047128185
100.276073832165
100.276112447075
100.276147300486
100.276187442474
100.276236625318
100.276263628108
100.276283669838
100.276413556743
100.276480074234
100.276609785497
100.276335203318
100.27642059003
100.2764835573
100.276081227135
100.276095071842
100.276101663787
100.275957772597
100.275386335007
100.275198794249
100.27582221284
100.27652477946
100.277098544611
100.277483036887
100.277703575815
100.277802421873
100.277820577998
100.277789436119
100.277729751698
100.27765417038
100.277570748108
100.277484956353
100.277400724032
100.277320960782
100.277247919352
100.27718328479
100.277128127338
100.277082855426
100.277047214067
100.277020363342
100.277001026761
100.276988289761
100.276981923671
100.276981858246
100.276997299823
100.27701966678
100.27704934164
100.277087746495
100.277135852453
100.277194056171
100.277262089097
100.277338999751
100.277423184802
100.277512428073
100.277603824853
100.277693355499
100.277775304533
100.277841173579
100.277877701561
100.277863458459
100.277764943648
100.277534317726
100.277114974817
100.276470791802
100.275666879119
100.274954705345
100.274686428676
100.274849982786
100.274929392276
100.274927780774
100.274892847929
100.274821750719
100.27477244294
100.27472104065
100.274667489697
100.274593238574
100.274484090681
100.274350846966
100.274153634592
100.274254073512
100.27409343013
100.273911296419
100.273562261431
100.27371511605
100.27392289919
100.274135066605
100.274169509776
100.274026945017
100.274196381827
100.274308430958
100.274416076381
100.274247120268
100.27442107448
100.274542254286
100.274426869231
100.274274448132
100.274481964385
100.274622598101
100.274775653727
100.274905087912
100.274867724073
100.274743608648
100.274586585677
100.274535046309
100.274659077205
100.274774470177
100.274870165237
100.274967920989
100.275047831443
100.275112069505
100.27515906229
100.275096809869
100.275049102861
100.274998360552
100.274959992046
100.274923243217
100.274895355795
100.274945365347
100.274911584457
100.274844758121
100.274800474299
100.27475067391
100.274698683936
100.274632694195
100.274535128607
100.274419291037
100.274340795672
100.274491007881
100.274622359547
100.274709713784
100.274771397317
100.274739825383
100.274719054394
100.274753811587
100.274699699149
100.274641422853
100.274559470344
100.274441415767
100.274296397342
100.274120475496
100.273862178851
100.274034056647
100.273999456619
100.273804776594
100.273414977777
100.27312469309
100.272786136857
100.272151790904
100.272581329223
100.272840759869
100.273191131506
100.273461163122
100.273667878248
100.27392559552
100.27414127408
100.274141726084
100.273941744805
100.273686187445
100.273495338589
100.273300664094
100.273131529808
100.273456816681
100.273735053416
100.274021661776
100.274279695039
100.274555501172
100.274722025792
100.274818651456
100.274784909475
100.274869635728
100.274849534806
100.274911563995
100.274876571112
100.274804326342
100.274795156484
100.274741133144
100.274683426633
100.274622124412
100.274534839814
100.274407918996
100.274252865782
100.27406615191
100.273784051329
100.273596802898
100.273202653604
100.273285215675
100.272958731947
100.272586284286
100.271813338378
100.271426868427
100.2705544766
100.271158213212
100.271699015097
100.272203846635
100.27274794129
100.273114785105
100.273097532346
100.272711566432
100.272313039267
100.271683219438
100.271517689178
100.271975258807
100.272298837138
100.27248197932
100.273564840508
100.274385292969
100.274651834437
100.274763018879
100.274816026864
100.274908499371
100.274895279009
100.274902180418
100.274868300282
100.274864694237
100.27479030538
100.27473459626
100.27467558121
100.274612221294
100.274522092599
100.274391571263
100.274231819429
100.274044233969
100.273762325583
100.273567467861
100.273151252528
100.272758994704
100.272357364222
100.271449398278
100.271594586871
100.271143745966
100.269945776216
100.26859002241
100.266299961774
100.25490882291
100.262408446434
100.267099787889
100.267823649026
100.269502341119
100.270610463038
100.268858106396
100.270532711305
100.271576996528
100.272333610814
100.272899882719
100.273376174993
100.273606017379
100.273463410768
100.273077449101
100.272446753304
100.271912047713
100.271283536638
100.270855830289
100.271282078401
100.271790592211
100.272021270781
100.272972765632
100.273826623368
100.274539119673
100.274743025538
100.274835697211
100.274884598649
100.274954046945
100.274899389892
100.274869027877
100.274844519466
100.274829418157
100.274822239284
100.274889011442
100.274898275671
100.274899862982
100.274865864596
100.274790945453
100.274735411994
100.274676937005
100.27461361316
100.274523199902
100.274393273592
100.274235289948
100.27404562354
100.273765294982
100.27356580072
100.273151170093
100.272760110983
100.272355068139
100.271445255485
100.270952786924
100.269564468911
100.269559425643
100.267825915017
100.264746744651
100.249503730646
100.230601834593
100.208682936524
100.199570565783
100.202681136364
100.203764459768
100.204949847489
100.205193442251
100.205032052533
100.203670381838
100.202947010306
100.204578197352
100.202764407919
100.201984328643
100.202245392517
100.199440637835
100.201363112618
100.202381282142
100.199219581589
100.200854927997
100.203086023191
100.200866174008
100.20035060435
100.203086468588
100.201651677726
100.201111358586
100.203632124937
100.201949001403
100.203061969764
100.207713163633
100.203979880908
100.202601200397
100.203728657811
100.202494074396
100.201019909977
100.201135911003
100.201273270569
100.200495325064
100.200996088395
100.201364749031
100.202584846313
100.198375929672
100.197359715278
100.198585443984
100.198914376123
100.199262323267
100.19705849207
100.200212406072
100.198743690864
100.201924780313
100.201820650487
100.20293081805
100.202684897338
100.20310924535
100.203133037982
100.202730779736
100.20287940514
100.201840776105
100.201918961526
100.1987680834
100.20018639821
100.197061172975
100.199265021343
100.198912883623
100.198568936773
100.1973437518
100.198367148101
100.202583478311
100.201357088053
100.200998500666
100.20049914004
100.201276702894
100.201151452998
100.201057067431
100.200549414975
100.199750664478
100.199747785762
100.200508638893
100.203535990313
100.204236022245
100.204212445118
100.203580736311
100.202498112885
100.203820428328
100.202750441684
100.204752858032
100.207733647945
100.204106884381
100.205057967501
100.207355412404
100.210233746097
100.214663063649
100.199868312945
100.200055146153
100.20219288353
100.208580284567
100.215608771589
100.206914073711
100.205634738719
100.207549129262
100.206147487991
100.208088956729
100.212816032484
100.213991739095
100.2123759852
100.212734987222
100.214753251942
100.21472854774
100.212622983565
100.212719174641
100.208008228481
100.206102789743
100.20751750311
100.205640744371
100.206917305437
100.215623481505
100.208569920231
100.202179430002
100.2000648002
100.199884012165
100.214681363611
100.21026057344
100.207351869006
100.20506025237
100.204100950541
100.207717762669
100.204741841341
100.202749280083
100.203796713357
100.203050487051
100.203129994562
100.20498767633
100.207600230408
100.206061685718
100.208420787673
100.209699254602
100.21013253449
100.207533327377
100.204893327308
100.205464872515
100.205887049122
100.209472002142
100.204723720977
100.202175887004
100.204477179965
100.203235903477
100.203187668206
100.204486720366
100.203742299395
100.203076703866
100.203169435425
100.207578766659
100.21016764182
100.209729234448
100.209413987624
100.20878853587
100.211641829688
100.214354266994
100.213529633706
100.213326932456
100.213589210528
100.214363836696
100.212899141872
100.213983547042
100.209151694273
100.211962576579
100.21005932422
100.20922639977
100.208527318117
100.209076651665
100.211034165987
100.211033704788
100.209033643295
100.208495633215
100.210038928035
100.211953073063
100.213975931997
100.212900801159
100.214374297362
100.213597143741
100.213331378015
100.213521665194
100.214352883037
100.211644985199
100.208782620958
100.209389417466
100.21075203788
100.206924192027
100.204691832084
100.204046221156
100.202921291622
100.202995459155
100.203587149227
100.204900522692
100.203345773867
100.202876481869
100.203428960155
100.202206229358
100.202189812112
100.20272787515
100.203481890562
100.20242469055
100.202303245277
100.202951049012
100.202115743701
100.20127956271
100.202187324491
100.202141383239
100.202330981203
100.201836383613
100.201600214053
100.20204593268
100.20210614383
100.200652991929
100.201685652063
100.20323068051
100.203040038467
100.202908146208
100.203269062195
100.203221098799
100.20372894586
100.203819855862
100.197929624701
100.191424236425
100.195264043235
100.208822365996
100.239351684594
100.256158268599
100.231940393549
100.255338315873
100.264097190971
100.268599539716
100.270967588453
100.270312368656
100.268272875868
100.265144313255
100.267416588601
100.269317338152
100.270877337998
100.272044686349
100.271822142769
100.27293033484
100.273453184436
100.273797791234
100.273951098712
100.273720901019
100.273285254348
100.27281460786
100.272670941655
100.272668594887
100.272635383561
100.272004747164
100.272086209968
100.269716788807
100.270569860526
100.271528708782
100.271434520585
100.269946279556
100.268139599554
100.268122544061
100.271402631132
100.271978818263
100.271747700927
100.272985606873
100.27076096594
100.269661294757
100.272418469178
100.272632061406
100.273839535146
100.274360110349
100.274063417309
100.274593383995
100.274280927545
100.273598809064
100.273028631705
100.272212983019
100.271130400952
100.271523046321
100.269774950364
100.2677307157
100.265734592521
100.266281436239
100.26684006784
100.270742405156
100.273732797618
100.274229354913
100.274309992312
100.27326878042
100.271705845271
100.272167492401
100.280356637958
100.27667066467
100.275193228311
100.274229737615
100.274231174328
100.274291814342
100.275529771846
100.275517406034
100.27610784557
100.275370014935
100.275429138213
100.275713134271
100.275656591091
100.275340008316
100.27490030781
100.275411265897
100.275291782717
100.275013061396
100.274927117375
100.274578761265
100.273985653437
100.272964431675
100.272442680551
100.273318217126
100.272215075963
100.270327713602
100.270897451487
100.26811990027
100.269078330357
100.266492444117
100.263972959234
100.262488803745
100.264544946855
100.265075922262
100.266091446061
100.270307584728
100.273320946137
100.277057044297
100.276952898167
100.276758169205
100.276344208268
100.277002357087
100.277928942557
100.278605830661
100.277684304173
100.277306582062
100.278192966988
100.276519730583
100.2756981446
100.275648872303
100.275479502719
100.276937889747
100.275994746239
100.276120089701
100.275977966244
100.275963776107
100.275963936294
100.276343653298
100.275795260655
100.275845263621
100.276112296381
100.276131978209
100.276105958598
100.275950015239
100.275910148922
100.275909070337
100.275918353545
100.27600909523
100.276178314377
100.276229665032
100.276189523975
100.276152030696
100.276084395339
100.276149604278
100.276074422804
100.276206086997
100.276369178646
100.276094868075
100.27592978142
100.275849164033
100.275800170611
100.275774732909
100.275636159205
100.274898635399
100.274628961244
100.274797769479
100.27478669529
100.274788036014
100.274890481295
100.274899689415
100.274906701384
100.274872285358
100.274798165762
100.274743972367
100.274686588775
100.274625526447
100.274537592491
100.274411280786
100.274260016417
100.274071461514
100.273792260206
100.273599477037
100.273203366255
100.272825004409
100.272434536121
100.27158739424
100.271128433361
100.269941813484
100.268595542269
100.266297118649
100.25491491471
100.249558186952
100.230725406601
100.2087459233
100.199554219414
100.202647817599
100.203730595381
100.204930574451
100.205179537713
100.202703915055
100.201954323071
100.202251247361
100.199464431203
100.201360874519
100.202380829629
100.19924911058
100.200863379449
100.20308102128
100.200871871131
100.200355679919
100.203085850069
100.20165302664
100.201110281127
100.203633071861
100.201948392371
100.203057503222
100.209460062779
100.204736722324
100.202191576973
100.201967290593
100.202624703507
100.204001432268
100.207601894923
100.205038673014
100.207506550445
100.208443704297
100.20606233301
100.206921940575
100.210779731028
100.212712929225
100.21308957538
100.212707071367
100.211364371491
100.207909064166
100.206156934736
100.209322219157