/*--------------------------------*- C++ -*----------------------------------*\
| =========                 |                                                 |
| \\      /  F ield         | OpenFOAM: The Open Source CFD Toolbox           |
|  \\    /   O peration     | Version:  v1612+                                |
|   \\  /    A nd           | Web:      www.OpenFOAM.com                      |
|    \\/     M anipulation  |                                                 |
\*---------------------------------------------------------------------------*/
FoamFile
{
    version     2.0;
    format      ascii;
    class       volScalarField;
    location    "0.7";
    object      p;
}
// * * * * * * * * * * * * * * * * * * * * * * * * * * * * * * * * * * * * * //

dimensions      [0 2 -2 0 0 0 0];

internalField   nonuniform List<scalar> 
80683
(
100.069057244209
100.071027196675
100.06786609552
100.072192105183
100.079218353284
100.079354796974
100.077408015815
100.077958567038
100.077943561615
100.078323428538
100.07882072973
100.078589446883
100.080314231205
100.079929323878
100.082469713102
100.082471189184
100.079042144689
100.07422739973
100.073141013026
100.073092087486
100.0740954484
100.073950916363
100.073167363192
100.07460701226
100.081053784495
100.081103301929
100.07538907388
100.073582612743
100.073477105276
100.072764159302
100.072632389761
100.073617940334
100.073568429255
100.075318806478
100.080867632948
100.080698382577
100.074501264512
100.073120325501
100.073853527287
100.073807539602
100.072926081061
100.072976264504
100.074100152623
100.078839583921
100.082111453574
100.081962835019
100.075020496382
100.074505860893
100.072311517793
100.071793070681
100.071719388149
100.071348140285
100.07081285337
100.069676310613
100.070767301281
100.071917895719
100.072080012842
100.071243887977
100.070209606305
100.069057761698
100.0686859934
100.069276200627
100.069201962252
100.068526194166
100.069079706456
100.070210032284
100.071186945499
100.072169171708
100.072142071975
100.070951883845
100.069853481013
100.0710303678
100.071457393435
100.071788072251
100.071791715545
100.072293253328
100.074731094268
100.075439466172
100.072833634621
100.075989521556
100.079107042322
100.080759664654
100.078602230316
100.07835152626
100.079515098874
100.077509517273
100.075030165847
100.070834982094
100.076136583938
100.064235185644
100.052209395107
100.057926191932
100.059043672696
100.071230907276
100.067130142278
100.068344870793
100.070499367227
100.068502920143
100.06708798204
100.066574166421
100.069147541198
100.070646990405
100.066582292079
100.065641570529
100.0679775351
100.065183674664
100.064064858088
100.065094801391
100.065099156642
100.064115921981
100.06519873759
100.067928980636
100.065600583662
100.066400103508
100.070884337184
100.069673896874
100.066909502718
100.067275794101
100.068605303561
100.070562529186
100.068297390937
100.067004666344
100.071553133778
100.071587402075
100.068589688395
100.072129847474
100.078365459888
100.083763982046
100.077130543872
100.077037361088
100.081318408137
100.096614548553
100.065228967283
100.065770505401
100.049649253919
100.023194630081
100.024104983514
100.019640565851
100.020041261482
100.026420542903
100.057173195345
100.069519300605
100.065626274137
100.065427825796
100.072325825603
100.058603409813
100.059352757823
100.0592815353
100.059473420539
100.069183218648
100.064335195334
100.064324093978
100.069129332707
100.059499268968
100.059323110077
100.059351061622
100.058437190685
100.057274335283
100.059327679817
100.057546671879
100.018051186563
100.021223127197
100.022223108727
100.022069444884
100.021267637865
100.021402410435
100.022850761551
100.023495630362
100.026820659289
100.023934513332
100.024941334367
100.028530368976
100.028534252452
100.024950229564
100.023891769663
100.026576506811
100.026085423285
100.019369307999
100.021088612477
100.027872267594
100.028311251396
100.027187434474
100.027058272718
100.028148578686
100.028016739593
100.027106548919
100.027474128718
100.027759351367
100.022541987117
100.023312496558
100.024512226978
100.024469260296
100.023194945239
100.022321474681
100.023248940056
100.022522318342
100.026866431544
100.028129896744
100.028859821313
100.029116100526
100.028285550558
100.028301442946
100.029198925924
100.029024519019
100.028339658189
100.028570190511
100.028757140846
100.028761330954
100.028041324863
100.027633992492
100.027571172856
100.027858578452
100.027409141531
100.027204447754
100.028337955889
100.026536588838
100.026389315375
100.02659968002
100.026770415329
100.026260384439
100.026212543957
100.026755084301
100.026704903729
100.0264824959
100.026694518927
100.026687733887
100.026696495962
100.02656818557
100.028378634706
100.028326102463
100.028624514914
100.028516458876
100.026534991848
100.024201515034
100.024236958354
100.024128978336
100.024153310492
100.024162454424
100.024149282252
100.024056939611
100.024049467747
100.024185191458
100.024121871223
100.024305590678
100.024270433737
100.024334675448
100.02429747515
100.024282274291
100.026538430961
100.026651224353
100.024316175814
100.022400751604
100.022297920092
100.022316235051
100.022228528649
100.022264717946
100.022116260539
100.022570978365
100.022555656215
100.022097745791
100.022257522375
100.022173561943
100.022316656835
100.022295168607
100.022401353531
100.022383334269
100.022378795247
100.020672468631
100.020670825758
100.020552150611
100.020552651706
100.020454763384
100.020540207428
100.020371932936
100.020254993043
100.020313909758
100.020432083262
100.020518882274
100.020408923737
100.020522245424
100.02051098997
100.020656032595
100.020668648322
100.018874438022
100.018873537113
100.018814889052
100.018632868384
100.018594079718
100.01845836303
100.018546177914
100.018559898016
100.018121250068
100.018140148607
100.018516740553
100.018545383485
100.018483864193
100.018594592384
100.01859285253
100.018816590097
100.016622714969
100.01676416781
100.016744134194
100.016556811095
100.016234607538
100.016161420633
100.0159780849
100.016022336614
100.016192584108
100.015476123832
100.015529142323
100.01621303018
100.016106231073
100.016165134273
100.016257304355
100.016304211498
100.012989806073
100.013619682125
100.013938624709
100.013861200904
100.013422366784
100.012710346382
100.012825087894
100.012569018606
100.012229857445
100.012760099257
100.011412889495
100.011566456689
100.013104104893
100.012616080105
100.013004128586
100.013110195851
100.008489216934
100.007291219768
100.008696815456
100.009678552719
100.009502433772
100.00830232825
100.006597150461
100.007672560241
100.007467148046
100.005742154353
100.007802940391
100.005192862012
100.005200503541
100.008268197614
100.006653568118
100.008499079436
99.9965248297539
99.995592840586
99.99002861207
99.9929707898977
99.9970873364496
99.9967506624541
99.9922652036077
99.9888699266324
99.9941883430556
99.9947964081574
99.988113278694
99.9933603256333
99.9915804552131
99.9918633494118
99.9944915332091
99.9902307105429
100.001909156397
100.007466295802
100.004691818384
99.9988395782622
100.005840816391
100.007936553322
100.007407852318
100.004678912604
99.9968547720194
100.002097303238
100.004392111722
99.9985603267332
99.9962606543826
100.033011227849
100.058634479858
100.059641338334
100.035796300204
100.000073663385
99.9989682159028
100.093944866493
100.17983233721
100.122941904798
100.12469971092
100.109925151101
100.092803632979
100.078972846884
100.070414828158
100.064196310418
100.066845204206
100.080500122221
100.070770470607
100.069992361584
100.078919230256
100.063958796377
100.060494187815
100.066033553433
100.073875404388
100.088439176196
100.106110626529
100.203189179274
100.227764292937
100.230278305917
100.207995643536
100.208600331458
100.195429923044
100.21669174608
100.252584433544
100.163402847235
100.161176146667
100.214954092179
100.176956128194
100.204604659535
100.231065375094
100.171555875341
100.171041838612
100.230306727666
100.20325319515
100.173825998453
100.211013101973
100.155673039472
100.156304639053
100.209156711144
100.188097326067
100.202501673839
100.301173702073
100.353440636997
100.325786170045
100.329428114331
100.362192416234
100.325411010255
100.309855165521
100.417963900409
100.449169913161
100.425184525092
100.437504764118
100.429659902116
100.389066810883
100.327598620031
100.352910336764
100.301869081148
100.406172058275
100.433902818815
100.405642261921
100.415089343003
100.434658764745
100.387815383436
100.324427335724
100.322877284707
100.250931611518
100.295098134335
100.374650057584
100.411598724333
100.438187280976
100.454114712868
100.463292381452
100.467912902763
100.470106125687
100.471218814153
100.471797307925
100.472117440294
100.472211078615
100.472076955722
100.471918511346
100.471889769034
100.472004722581
100.472358753768
100.473106292936
100.474093015346
100.475216384707
100.476712126925
100.479947789868
100.487364128024
100.50408951073
100.528592272331
100.57173443317
100.565426630262
100.500335367572
100.442660536295
100.38451324644
100.351308058924
100.374171478061
100.372381562062
100.370236901946
100.370849603023
100.371969496951
100.372987505082
100.374191780783
100.375792917259
100.377712248184
100.379734942226
100.381572008531
100.382956432192
100.383646229614
100.383144664083
100.382390244812
100.381316454212
100.379910587523
100.378181300166
100.376141544833
100.373914478079
100.371726365944
100.369762564478
100.368145379739
100.366863697934
100.365886080791
100.365171057515
100.364738733025
100.364632020192
100.364852618098
100.365399874218
100.366295080119
100.367559693279
100.369129005263
100.370696192045
100.371584408358
100.371695891177
100.37157625863
100.371710201258
100.371716445121
100.37176333844
100.371775844942
100.371790276206
100.371854198197
100.371862878011
100.372086950945
100.372226932039
100.372372314462
100.372381823603
100.372349951424
100.372203261563
100.372075907073
100.371899213845
100.371890047158
100.371829932504
100.372078167261
100.372232034038
100.372237548394
100.372091027925
100.371956969697
100.371770182748
100.371744352487
100.371699046511
100.37170049197
100.371705818383
100.371659188655
100.3716706129
100.37161593011
100.371635477455
100.371483110955
100.371628263856
100.371596703464
100.371638504715
100.371636246307
100.371639180063
100.371652275019
100.371653074242
100.371807043399
100.371939692292
100.372077452369
100.371885725003
100.371765259821
100.371655008552
100.37155164219
100.371588269428
100.371580223382
100.371566714786
100.371573105789
100.371546659477
100.371581090183
100.371498422891
100.37151728328
100.371382982755
100.371538822605
100.37149217036
100.371519161535
100.371504134815
100.37151748344
100.371530585922
100.371503718957
100.371559769167
100.371631355508
100.371715383738
100.37172166547
100.371608823741
100.37144682486
100.371288103484
100.371301317345
100.371238696826
100.371455668854
100.371589674719
100.371509445388
100.371479272115
100.371438430936
100.371451817087
100.371450416552
100.371449508184
100.371465127899
100.371440526101
100.371482547495
100.371367791106
100.371359055905
100.371278566281
100.371433386983
100.371388489441
100.371403742558
100.37139718712
100.371406180058
100.371397165295
100.371362703599
100.371405642838
100.371412610163
100.371291518738
100.371306208993
100.371295792805
100.371348139648
100.371353862241
100.371338683635
100.37134633193
100.371337587812
100.371362318655
100.371229699098
100.37118490012
100.371163399736
100.371309742948
100.371284518489
100.371296914688
100.37129086278
100.371295357123
100.371276179702
100.371210850985
100.371269261485
100.371197539284
100.37123692244
100.371158530245
100.371190653099
100.371078329009
100.371166989224
100.371204304886
100.371244860896
100.37120397257
100.371271792247
100.371242189231
100.371240162676
100.371226603814
100.371236082118
100.371106252279
100.371006427799
100.371055203205
100.371168686297
100.371146685722
100.371176050185
100.371163069882
100.371187860712
100.371168558854
100.371180310311
100.371055890646
100.371109611767
100.370911089639
100.370823394436
100.370716034324
100.370837610544
100.370751280376
100.371014702504
100.37105351688
100.371151531777
100.371112369584
100.371163087352
100.371207156125
100.371166557416
100.371089757856
100.371142569032
100.37110012285
100.371083171874
100.370962037952
100.370921514052
100.370646604373
100.370063008021
100.37066810669
100.370917736078
100.370929623174
100.371021595428
100.371052976243
100.371074855242
100.371137516508
100.371132370592
100.371103449691
100.371129756513
100.371035433981
100.370927991055
100.370854836448
100.37081402449
100.371005932621
100.370855016764
100.371004625401
100.371098555944
100.371021269009
100.371079922009
100.371087062563
100.371036205364
100.370999244878
100.370967117396
100.370870540379
100.370840791807
100.370606542645
100.369954298788
100.370639892662
100.370828735945
100.370855623547
100.370927014236
100.370959781478
100.370999290562
100.371044004107
100.371060940014
100.370998587407
100.371043359302
100.370892549755
100.370933752532
100.371040602142
100.371095655415
100.371073075483
100.370980607072
100.370944703688
100.370575167031
100.370459821557
100.370686521277
100.370734115654
100.370941615409
100.37073331616
100.371011008051
100.371059358866
100.370972009828
100.370995173855
100.370956827353
100.370924701368
100.370905885785
100.370854422617
100.370835037898
100.3707890971
100.370619159213
100.370046158045
100.370710279649
100.370782779205
100.370826920763
100.370879267824
100.370867099884
100.370966430017
100.370988726912
100.371026795872
100.371025281971
100.37105156025
100.37110638121
100.371162984043
100.371230592153
100.371256582983
100.371175027771
100.371183477598
100.371224504629
100.371264774905
100.371314270163
100.371361295825
100.371409601157
100.371458501119
100.371502169027
100.371553217474
100.371598632133
100.37165421995
100.371783461703
100.371830351496
100.371857351006
100.37186054451
100.371933472244
100.371969181211
100.372229835209
100.37236846642
100.372524454523
100.372575279457
100.372518671883
100.372459322439
100.37222007674
100.37202009996
100.371858864472
100.371709154732
100.371588032677
100.371616307015
100.371681211719
100.371899852724
100.372057247661
100.372294204216
100.372143860513
100.371965887971
100.371707111974
100.371591682735
100.371520448221
100.371344545558
100.371196844931
100.371034798287
100.370898223831
100.370954414904
100.370937833095
100.371142735176
100.371356255166
100.371490694899
100.371621668862
100.371692074806
100.371604205207
100.371455903971
100.371270932251
100.371144939457
100.371168482951
100.371115523889
100.3709584026
100.370878328362
100.370680903392
100.370424776151
100.370188017443
100.370084996274
100.369907786113
100.370091020881
100.370111382881
100.370339166036
100.370665994081
100.370499697343
100.370375825123
100.370200771209
100.370050252918
100.370355340866
100.370290461214
100.37064486188
100.370620313463
100.370600654865
100.370826319755
100.370901642185
100.371155439548
100.371094513692
100.371130747918
100.371158947191
100.371179651695
100.371332349517
100.371383407968
100.371437754405
100.371478451939
100.371515780622
100.371532265536
100.371560870509
100.371561189065
100.37159352896
100.371598719886
100.371640366956
100.371658364798
100.37170583359
100.371851698646
100.371909662903
100.371941191899
100.371919032122
100.372033827264
100.372110319843
100.372392246214
100.372500815621
100.372700725472
100.372678654907
100.372686545217
100.372737982803
100.372621682461
100.372413129475
100.372292601729
100.372186709119
100.371888877808
100.371464156393
100.371294738544
100.371163866393
100.370956064059
100.370806652199
100.370669127433
100.370552883959
100.370408434849
100.370302766233
100.370155831232
100.3702821935
100.370403822373
100.370619824063
100.370766426989
100.370914798771
100.371009860423
100.37115785276
100.371294983576
100.371437595868
100.371562148115
100.37140712619
100.371598349973
100.371845116343
100.371766248384
100.371914029782
100.371802682193
100.371608913402
100.371444435076
100.371485923296
100.371560933802
100.371706793821
100.371773876081
100.37192965276
100.371980504027
100.372014727258
100.372006011015
100.372153819272
100.372229947134
100.372511409295
100.37261671029
100.372795345031
100.372794278926
100.37286615411
100.372736320919
100.372561174499
100.3722966928
100.371987486231
100.371613178641
100.370989783757
100.370719514742
100.370566606233
100.370408403383
100.370228256327
100.370050680601
100.369869825041
100.369729928679
100.369631733259
100.369852765865
100.370043292987
100.370254845881
100.370604900483
100.370630647852
100.370827229707
100.370631190788
100.370889043065
100.37107788172
100.370891753892
100.371207534931
100.371538418028
100.371846366847
100.371870360371
100.37180865984
100.371849969268
100.371888702701
100.372007267695
100.37204070003
100.372089565948
100.372086948801
100.372249259804
100.372329476819
100.372603231996
100.372731624687
100.372932265227
100.372923881079
100.373002691427
100.372864037808
100.372716248236
100.372458964588
100.372115097613
100.371774209231
100.371192036458
100.37093597313
100.370569557942
100.370373272056
100.370301403447
100.370076364152
100.369922651588
100.36976315666
100.369604894461
100.369382851971
100.369167243457
100.368970003975
100.368807504388
100.368634069978
100.368387557653
100.368178899468
100.368476697551
100.368769872876
100.368945952053
100.369091155576
100.369260556273
100.369443707915
100.369687526691
100.369896883602
100.370030581692
100.370153441754
100.370381288016
100.370249905037
100.370093912336
100.369633267613
100.369706566881
100.369917682811
100.369925775093
100.370539720686
100.370879829706
100.371386149551
100.371736805466
100.371731408554
100.371708183709
100.371756046116
100.371797641179
100.371686952085
100.371765250103
100.371820751844
100.371802099633
100.371900354408
100.371941676652
100.372107935577
100.372112548373
100.372176975433
100.372165522042
100.37234565568
100.372443356038
100.372707133942
100.37285881223
100.373097780727
100.373023011932
100.37314702838
100.373009924541
100.372846475327
100.372575751991
100.372245509224
100.371901212094
100.371328968769
100.371058459938
100.370592453604
100.37050371208
100.370358075704
100.370369824799
100.37032959376
100.370468643999
100.370282792207
100.370108820554
100.369959295078
100.369791377033
100.369597664012
100.36935105682
100.36911776985
100.368880331404
100.368643426427
100.368324268921
100.367976976492
100.367646529674
100.367386568507
100.366993374299
100.367236913354
100.367602749693
100.367882902921
100.368208919395
100.368454296391
100.368654779313
100.368906319407
100.369144957001
100.369397925374
100.369568074231
100.369730340964
100.36987559034
100.370093504984
100.370032777514
100.369878350904
100.369640039952
100.369514413484
100.36944598186
100.369781381768
100.369513072799
100.36928353947
100.36891058289
100.368486251019
100.368031631368
100.367464578209
100.366749542491
100.365732852179
100.364288293372
100.363479378135
100.363772642091
100.364567455494
100.365375661417
100.366064537685
100.366795758569
100.367357519772
100.36787394069
100.368323669776
100.368705857134
100.369073284937
100.369711522823
100.368034948552
100.367423134356
100.367091649391
100.366801870869
100.366514290501
100.366213351216
100.365769516334
100.365189272978
100.364142153075
100.363099866819
100.359985157836
100.35732514307
100.361527244895
100.360842637547
100.360399797134
100.357843607999
100.358380965932
100.35721087053
100.359377234067
100.36057635486
100.361294475714
100.362462526023
100.363427407671
100.364660330927
100.365685087391
100.3663684063
100.367094987529
100.367646122322
100.368196382352
100.368632763861
100.369000134239
100.369306038477
100.369712003575
100.369686158504
100.370308477528
100.368477190889
100.371879237911
100.372145778212
100.37225836196
100.37247098633
100.3725042597
100.372361132622
100.371848203342
100.370983433328
100.369964974785
100.368653141803
100.366812999326
100.365127479306
100.363842944089
100.365561363516
100.366321127173
100.362685662328
100.360364055688
100.359013273716
100.350816738842
100.35409576623
100.352514775969
100.355662804389
100.357484537598
100.365580564477
100.367437339667
100.369678904275
100.36953454373
100.369698914134
100.369837297472
100.370062124669
100.37037668413
100.370700570603
100.371044730461
100.371340947229
100.370143099518
100.368506783107
100.366983928106
100.365816037447
100.365044274313
100.364625234358
100.364551626364
100.364805087575
100.365356243614
100.366143725922
100.367164047217
100.368472388008
100.370100693825
100.372040469585
100.374169964675
100.376310975841
100.37826363854
100.379903385785
100.38120033962
100.382146204762
100.382766437643
100.383145951614
100.383390609458
100.383971640574
100.383748916365
100.38336716291
100.382786110566
100.381960630159
100.380836219071
100.379422586011
100.377705846465
100.375658303713
100.373403576032
100.371211291122
100.369273776459
100.367714737223
100.366501383127
100.365604081947
100.365003420847
100.364722747156
100.364770691549
100.365141380573
100.365817678356
100.366837085057
100.368207815858
100.369797222963
100.37121616577
100.371784239334
100.371891543859
100.371943691872
100.3719241335
100.371913214121
100.371995083781
100.372171705091
100.372162719531
100.372261641136
100.372272194967
100.372506469826
100.372619670685
100.372829871642
100.373035980854
100.373079756521
100.373186340556
100.373270160943
100.373297418344
100.373161348692
100.3730009925
100.372665756064
100.372388765205
100.372191548414
100.371988044413
100.371637517996
100.371229439301
100.370773388325
100.370618862381
100.370461184656
100.370476773099
100.370638682491
100.370578567758
100.37089558975
100.370779754413
100.370602210332
100.370753603729
100.370536516233
100.370380901769
100.370226360604
100.370010076528
100.369765784688
100.36952567706
100.369255216559
100.368946209572
100.368676255336
100.368178650498
100.368400534381
100.368763776646
100.369073880101
100.36932993223
100.3695674122
100.369818910004
100.37003105705
100.370188364082
100.370358810567
100.370584779381
100.370373366845
100.370403423731
100.370438577482
100.370153336803
100.369684143653
100.3693067874
100.369174732677
100.369330287068
100.36968903945
100.369957269873
100.371666745807
100.371504654175
100.372218312432
100.372037606561
100.371818252275
100.372128151202
100.37202212764
100.372148665374
100.372385348762
100.372293017627
100.372411557236
100.372485641009
100.372769048644
100.37308621129
100.373302972029
100.373452271039
100.373457965761
100.373366523252
100.373302718749
100.373163371293
100.372836809401
100.372549683046
100.3721137741
100.371752845827
100.371363689636
100.370925552746
100.370746326723
100.370463316265
100.370604914251
100.370470198392
100.370616714357
100.370772015555
100.371030921782
100.370959495499
100.371223016849
100.371050943064
100.371080569551
100.370942862253
100.370819650103
100.370681715515
100.370512757426
100.370322422593
100.370132753465
100.369917603772
100.369666328561
100.369388261318
100.369098436776
100.368761103955
100.368342447385
100.367876234905
100.367523516371
100.367050663252
100.367380090972
100.367822160497
100.368266758197
100.36849523129
100.368825010104
100.369140528871
100.369433900587
100.369687228758
100.36992129415
100.370137274679
100.370324519195
100.370496246657
100.370684127379
100.370900678944
100.371037466244
100.370907057282
100.370799399844
100.370787847007
100.370440881479
100.369373782312
100.368487816568
100.368282039962
100.368440569891
100.368689155907
100.3693933108
100.369970036754
100.369943305977
100.368929129742
100.37103210746
100.369195340202
100.37165692902
100.371840803605
100.373161840208
100.371706203237
100.371231317804
100.370664303944
100.369872718607
100.369023381871
100.368326866908
100.367723718033
100.367255939413
100.366919562189
100.366438224175
100.366741251376
100.364716116681
100.363928967803
100.362732085577
100.361776453393
100.359884543123
100.359791496917
100.358886487917
100.358564117414
100.350606925727
100.353816533985
100.352027878289
100.352305855722
100.353786807134
100.354532083895
100.353846002727
100.354129797735
100.354564925873
100.35950845743
100.357255106893
100.358264422595
100.356426494875
100.355251956834
100.355320729652
100.357358213468
100.358643593333
100.35962719039
100.359665475886
100.357460898174
100.358068315998
100.360468991937
100.361759137239
100.363427893464
100.363233356634
100.364670022298
100.365730593113
100.366777099905
100.36755059514
100.368239902683
100.368744224551
100.369145611754
100.36945943437
100.369771520324
100.369889268651
100.369854689159
100.370040885061
100.370156796875
100.369396856817
100.368230314857
100.370945776595
100.372075338578
100.372483881779
100.372204817135
100.372199155385
100.372285460407
100.372255970228
100.372568948823
100.372502640965
100.372629230456
100.372740382613
100.373060480106
100.373191504631
100.373537673556
100.373704115098
100.373646020625
100.373714964542
100.373616489683
100.373573461883
100.373569290699
100.373448831191
100.373271166085
100.372984077122
100.37269928741
100.372634203749
100.372098278073
100.371827945646
100.371563703973
100.37141804266
100.37115440569
100.370897057696
100.370615708722
100.370717263621
100.370722971956
100.370947764277
100.371141292364
100.371067520978
100.371278269638
100.371210991928
100.371348147819
100.371241949793
100.371146882371
100.371005259254
100.371001918346
100.370805330337
100.370659010786
100.37047937212
100.370291330264
100.370063208356
100.369840337326
100.369560039195
100.369263978252
100.368965041143
100.368610257111
100.368193772536
100.367836869957
100.368059355218
100.368487459856
100.368845838715
100.369156727365
100.369455796783
100.369733955036
100.369965245016
100.370180914816
100.370384438974
100.370574905215
100.370737255034
100.370904486076
100.370909522154
100.370980488977
100.370754489116
100.370518355563
100.370753286327
100.369789871822
100.37001201012
100.369029079255
100.369455598531
100.369899285883
100.3699691837
100.370307483861
100.370211990914
100.370644841286
100.368805828376
100.372534531665
100.374118615532
100.372821557704
100.371624929699
100.371826508137
100.370465002072
100.369703566202
100.368774639547
100.36778923492
100.367193754941
100.366695276779
100.366272337273
100.36589017734
100.365417228656
100.364798296192
100.364964748082
100.365732381778
100.366284006307
100.366759452851
100.367306880962
100.367925435915
100.368602512713
100.369365884913
100.370033210752
100.370786197639
100.371663886194
100.371066185196
100.370790883637
100.371363344102
100.371731504839
100.372112369633
100.372026899019
100.372002005852
100.372174588421
100.37207823539
100.37233993086
100.372347713355
100.372364384874
100.372593802703
100.372626074188
100.372876475269
100.373203991305
100.37340453858
100.37354446301
100.373545556125
100.373545552629
100.37347852031
100.373300721115
100.372977030582
100.372551513194
100.372245658668
100.372605027498
100.372762255822
100.372976885815
100.373316061148
100.373483291119
100.373633677635
100.37370320537
100.3735416356
100.373384676317
100.37314713303
100.373087919264
100.372932553322
100.372598652761
100.37257081171
100.372481043707
100.37252755336
100.37219428291
100.372261551595
100.372172863741
100.372091804408
100.372022990642
100.372222226127
100.372120083777
100.372409966808
100.372432480739
100.372498813216
100.372489718964
100.371993147389
100.372101196459
100.372238275077
100.372386251937
100.372754823795
100.372828933849
100.373087579078
100.373517889661
100.373711226038
100.373732990241
100.373644955864
100.373444894187
100.373378924514
100.373151888124
100.373111678855
100.373031861432
100.372916655916
100.372676641797
100.372414533917
100.371990418556
100.371883273613
100.371424863844
100.371192613208
100.371007394725
100.370719019979
100.370836660347
100.370746972488
100.37108938462
100.370975370824
100.371100775535
100.371211603599
100.371346209045
100.371305205556
100.371430096677
100.371387669259
100.371440643595
100.371351368116
100.371243647455
100.371113594709
100.37094884894
100.370772868281
100.370603221416
100.370402708518
100.370201948267
100.369947197734
100.369710601005
100.369411876757
100.369092532619
100.368771122523
100.368382772633
100.367928429359
100.367583826754
100.367076953557
100.366444212676
100.365786101768
100.365167947518
100.364295654069
100.363511976326
100.364388980676
100.365205167212
100.365848958628
100.366518857202
100.367086253529
100.367511852788
100.367703174715
100.367333300917
100.36703112922
100.366436058192
100.365772975631
100.365057286994
100.364043312713
100.364849657622
100.365382074454
100.366070411861
100.366621542694
100.366966987663
100.366310343938
100.365740739315
100.364882893589
100.365424646957
100.365966894009
100.366521374053
100.367139259229
100.367648839707
100.368047277454
100.36819792529
100.36767871963
100.367233502652
100.366826075949
100.366386566076
100.36564731841
100.366139347515
100.366734564798
100.367036116312
100.367379198525
100.367772524931
100.368287869594
100.368670906091
100.36894929662
100.369189759314
100.369421886752
100.369670171171
100.369872855344
100.370042377927
100.370206331403
100.370140122975
100.369796175587
100.369386603865
100.368937300036
100.36906313184
100.369187580213
100.369504377137
100.369999435193
100.370344886481
100.370239754497
100.370327675928
100.370474350548
100.369760519834
100.369286832576
100.36972570954
100.369257344275
100.36868938184
100.367934167977
100.367090554114
100.366004242679
100.364870550594
100.364589402003
100.366057804013
100.367303964632
100.368234781383
100.369026186042
100.369599603903
100.370059019615
100.370384368754
100.370078637326
100.370395396388
100.370525352673
100.370697027385
100.370612479451
100.370312633679
100.370364044985
100.370126395745
100.370244260093
100.371045496417
100.36955447962
100.371843588748
100.372354879648
100.373855795528
100.372657413031
100.372589860712
100.37151803707
100.370853608126