/*--------------------------------*- C++ -*----------------------------------*\
| =========                 |                                                 |
| \\      /  F ield         | OpenFOAM: The Open Source CFD Toolbox           |
|  \\    /   O peration     | Version:  v1612+                                |
|   \\  /    A nd           | Web:      www.OpenFOAM.com                      |
|    \\/     M anipulation  |                                                 |
\*---------------------------------------------------------------------------*/
FoamFile
{
    version     2.0;
    format      ascii;
    class       volScalarField;
    location    "0.3";
    object      p;
}
// * * * * * * * * * * * * * * * * * * * * * * * * * * * * * * * * * * * * * //

dimensions      [0 2 -2 0 0 0 0];

internalField   nonuniform List<scalar> 
74874
(
100.135833312636
100.138217496244
100.138690866486
100.137280654725
100.142795851661
100.143382242379
100.140224381477
100.141832713213
100.144349736782
100.144423389677
100.142310923027
100.140774824233
100.144058507306
100.14350849116
100.144519867277
100.144703274035
100.144084645985
100.140945936047
100.138036930712
100.137467350662
100.138941766153
100.140258913895
100.138740372397
100.138390720487
100.143831957895
100.143967875821
100.139367186668
100.139632809317
100.140795554915
100.13897423827
100.139111744852
100.14060991944
100.139614709134
100.13931454163
100.143900755961
100.143402937893
100.138300872835
100.138717054804
100.140159074017
100.138579789437
100.137148732394
100.137674186512
100.140580708845
100.143727077709
100.144174614096
100.143932486486
100.137789433385
100.137049072819
100.136655020371
100.136088897811
100.135076138775
100.135081449135
100.134366508859
100.134714170383
100.134981145746
100.13553793346
100.13673868479
100.136227163942
100.134619553391
100.134332234473
100.13406517608
100.133612076018
100.13365643213
100.134194317962
100.134355312003
100.1346909965
100.136243984594
100.136777710175
100.135653503021
100.135136638252
100.135004606228
100.134667008644
100.135328724334
100.135338680717
100.136326977775
100.136943729051
100.137420906261
100.138199306439
100.137743476026
100.139313800515
100.138922276231
100.14006484986
100.140324220367
100.140109086834
100.139541944584
100.139060712361
100.138563916189
100.135407786253
100.133732761907
100.135763690486
100.134725075534
100.13103310161
100.131982048717
100.134594006152
100.134291598755
100.132548147117
100.13078979631
100.132372123954
100.133934832185
100.133285363787
100.132609332006
100.132193303328
100.130373202535
100.129308429592
100.130505131312
100.130449566143
100.129188014954
100.130326272534
100.132306123498
100.132788977709
100.133135442609
100.134143670796
100.132916630878
100.131269957275
100.132912780953
100.134551779844
100.134828571082
100.132158097528
100.131250586528
100.135134207693
100.136188043433
100.134248647079
100.136227804022
100.139789661929
100.140013187852
100.137601926334
100.137365828125
100.13094668787
100.139097147268
100.138690491931
100.133259992864
100.130785850562
100.135423742334
100.13579634289
100.130125503569
100.130359372014
100.133258739202
100.131665406598
100.130492847164
100.128497269801
100.131384046885
100.133959869482
100.130199265866
100.129642393012
100.131881254648
100.128256277281
100.125908465265
100.128092935507
100.128058106203
100.125846614109
100.128228678723
100.131992480142
100.13001474274
100.130862967913
100.134924902267
100.132367569041
100.129075599928
100.130908876605
100.131969575544
100.133544247655
100.130569074302
100.130288189734
100.136371600342
100.135894346984
100.131486553557
100.134516818684
100.141308089936
100.142186355337
100.131882120643
100.159017656628
100.156975657383
100.129556268865
100.129419412903
100.134746880023
100.124287927233
100.125821451575
100.136873950672
100.133247280528
100.130394873584
100.130325024253
100.135231015952
100.124804613453
100.12594972278
100.126207672208
100.125959907018
100.132783542807
100.12904783055
100.129012144482
100.132645985296
100.126088483418
100.126356822928
100.126125543739
100.124717377427
100.123168172262
100.126109363399
100.123866113457
100.115227454518
100.117830347696
100.089604367286
100.085716205534
100.086079677827
100.091849332609
100.123075788926
100.117393260136
100.100349628951
100.093359840001
100.087039114262
100.0877934462
100.092769855566
100.089752421792
100.090718172587
100.094015174294
100.094002538121
100.090669650717
100.089735902056
100.09240579276
100.091586341717
100.085381552743
100.084111008412
100.088639746295
100.086682309086
100.086513415471
100.085513161301
100.085538591793
100.091763711103
100.090969052947
100.091284532848
100.091670124949
100.086936028906
100.08750903803
100.088856976387
100.088832467443
100.087490823896
100.086725919819
100.087717019063
100.086942603707
100.085461413412
100.085494170727
100.092289660948
100.091351983038
100.091014094659
100.091781917511
100.093060278947
100.093003617163
100.092384752133
100.092563513435
100.092817342306
100.09285012904
100.09194313767
100.091661007932
100.091652139856
100.091833824138
100.091474273071
100.091244647671
100.090902327913
100.091826365509
100.092936611366
100.093246473639
100.092502120103
100.0923972053
100.090671722722
100.090960031504
100.090940864289
100.090735263492
100.090889083479
100.090888497156
100.09091776335
100.090781328629
100.092498855122
100.092472434692
100.092715553634
100.092637212456
100.092472085546
100.092311340845
100.090606633368
100.090792086584
100.090932952475
100.090648085311
100.088325946297
100.088377574698
100.088490297355
100.088518362953
100.088433136175
100.088550228047
100.088500584075
100.088550353814
100.088502038812
100.088487777689
100.090761242326
100.090834169077
100.090764164766
100.090767735747
100.088443064343
100.088292305927
100.088373255113
100.088388065485
100.086388105504
100.086376347288
100.086428349441
100.086487409342
100.086546531596
100.086471539569
100.086558465248
100.086527067297
100.086575835527
100.086540944418
100.086529254778
100.086550504281
100.088512095181
100.088416962657
100.086462075796
100.086479375862
100.086367987001
100.0864395169
100.084704526524
100.084663090126
100.084611229103
100.084642691163
100.084685676806
100.084763854179
100.084707244351
100.084788072156
100.08476695461
100.084815407987
100.084796837497
100.084792568399
100.084802606942
100.084717772074
100.084732541431
100.084653633505
100.082851275606
100.082853435745
100.082810815707
100.082709650501
100.082727003437
100.082772146194
100.082875625216
100.082845940774
100.082937932469
100.082918027246
100.082988206511
100.083001678212
100.083008312019
100.083004709419
100.082906215724
100.082918073391
100.080839127023
100.080762387981
100.080730471978
100.080678283319
100.08043129665
100.080442343094
100.080589560283
100.080700076667
100.080679170063
100.080798620921
100.080800408345
100.080906183295
100.080960366392
100.081016048881
100.081001441936
100.080884628401
100.078317587626
100.078235306069
100.078120901484
100.07809496283
100.078033598906
100.077436633063
100.077401028699
100.077827636872
100.077929775518
100.077943872053
100.078097203687
100.078167459924
100.078360962625
100.078426057157
100.078507517527
100.078449376082
100.074631887035
100.07441436215
100.074431093792
100.074225371247
100.07403058021
100.074230319213
100.072993186868
100.072847510508
100.073775328954
100.073655449714
100.073816588135
100.074084260214
100.07412911347
100.074495483248
100.074679202915
100.074740976594
100.068683099296
100.068539512903
100.068023377485
100.068295515869
100.068164899441
100.067280879689
100.068164222475
100.065638098609
100.065509621719
100.067467031918
100.06656907675
100.067285179802
100.067556339218
100.067556437806
100.068101640799
100.068496592162
100.046190596079
100.046415815044
100.043165994274
100.042841306682
100.046479186875
100.047060405777
100.042298484962
100.042768048669
100.042679856347
100.04257912461
100.042124005787
100.041019729106
100.045859100073
100.04552539553
100.042276119209
100.042717741041
100.048524366127
100.051347543218
100.051445306595
100.049350041716
100.049123602961
100.050748596087
100.052962662917
100.046745390279
100.033572835078
100.075949970775
100.11159139923
100.111251142267
100.074785205986
100.041989905507
100.042221925754
100.180841333157
100.305358930713
100.230821249171
100.228828958433
100.182016716167
100.166647019727
100.152024816204
100.045698000728
100.052229109714
100.050420200893
100.048440039548
100.157805228988
100.158451952515
100.197244768133
100.136209574538
100.136995368514
100.198723683956
100.159853927505
100.158648537869
100.195006171726
100.131942274199
100.129706268012
100.185823261022
100.15240708788
100.16961279821
100.18463303836
100.304653050787
100.374719042924
100.353052181123
100.349730068114
100.368502957269
100.346818044564
100.300376579998
100.465820314884
100.492065264521
100.499135202378
100.533037381894
100.603201697293
100.607415737515
100.528205994093
100.461249614366
100.394852151431
100.356954696832
100.380938742946
100.379503022481
100.376460913191
100.376616994135
100.377609203013
100.378646803369
100.379936209359
100.381727511538
100.384009142303
100.386635048231
100.389366886458
100.391786639531
100.393326611347
100.392138205654
100.390505306842
100.388594091845
100.386538250761
100.384541152024
100.38259165112
100.380654934453
100.378833630345
100.377225268886
100.375812618562
100.374447610373
100.372947403285
100.371173248551
100.369162885656
100.367248732118
100.366078181201
100.366580875101
100.369194098477
100.372777772738
100.375422495478
100.376166698163
100.375939500783
100.375915608952
100.376084629491
100.376425473118
100.376313157557
100.376205209865
100.376011290679
100.375902353277
100.375622228072
100.37560493495
100.375812373938
100.375126912827
100.372626699419
100.369140003928
100.366460392629
100.365874014274
100.367029596968
100.368970702011
100.371012875256
100.372815915212
100.374314354587
100.375647292933
100.376998495344
100.37852348078
100.380246869204
100.382071168476
100.383881033591
100.38567603255
100.387468767837
100.389118020615
100.390550246387
100.391604159143
100.392124610321
100.3939152075
100.395143188811
100.394513999313
100.393243179325
100.391479624613
100.389392874409
100.387145651802
100.384971057451
100.382890635807
100.380878490909
100.378995369486
100.377321867975
100.375841728244
100.374421743518
100.372889867508
100.371116151438
100.369141341225
100.367300159113
100.36623347757
100.366831767736
100.369513271929
100.373147838881
100.375818247553
100.376510137562
100.376260687093
100.376202612307
100.376321982227
100.376643955228
100.376530374218
100.376568489038
100.376644245043
100.376690708157
100.376738160475
100.376759792788
100.376838024032
100.376863410376
100.376960053848
100.377025294282
100.377229130722
100.377199497961
100.3771705092
100.377138791969
100.3770274034
100.37704644676
100.376926791859
100.377143647581
100.377152871653
100.376939335314
100.37685657428
100.376772292603
100.376742200794
100.376663454111
100.376641916758
100.37659237151
100.37654021486
100.37646823314
100.376341331869
100.376426904786
100.376477077267
100.37652695916
100.37656012745
100.376638154857
100.376682493058
100.376757607592
100.376825211677
100.376995946361
100.376836128147
100.376888073393
100.376778998687
100.376728195706
100.376676414868
100.376589874745
100.376716194159
100.376639013544
100.376576178278
100.376537604609
100.376467456701
100.37642337826
100.376370371979
100.376318218841
100.376233952882
100.376081495799
100.376201950099
100.376259486252
100.376315553173
100.37636990014
100.376435505223
100.37649287116
100.376528239939
100.376579185128
100.376630562875
100.3766785668
100.376774435916
100.376877627634
100.376992175322
100.376970311568
100.377079580913
100.377143838467
100.377352672359
100.377322523005
100.377290047647
100.37710600556
100.376648852033
100.376148637351
100.376039661284
100.376014815379
100.375956138609
100.375978939369
100.376192214289
100.37634094915
100.376428009167
100.376488511366
100.37651122042
100.377011954157
100.376974681352
100.376907760454
100.376901018986
100.376906327011
100.376799814714
100.376575186666
100.376286231229
100.376273460114
100.376137154767
100.37633175891
100.376268650078
100.376508384794
100.376700173529
100.376578598458
100.376413525657
100.376523517564
100.376583108837
100.376667165674
100.37676580829
100.376870193267
100.376957548095
100.377064184584
100.37716402838
100.377215865883
100.377413429235
100.377356837734
100.377316644053
100.377065453135
100.376718627978
100.376278401532
100.375564290922
100.374939909302
100.37435882427
100.374202901467
100.373961733845
100.374148791412
100.374545633653
100.374840269405
100.375473470269
100.375276717143
100.375043825696
100.374445886499
100.374373975671
100.374391084466
100.374295883926
100.374281908983
100.374720939773
100.375037399593
100.37515940409
100.375165515508
100.375000674534
100.374501320359
100.37500147695
100.375606797888
100.3755965476
100.376232457731
100.3763994606
100.376401792355
100.376520972402
100.376454393482
100.376566656184
100.376664615626
100.376774910615
100.376796073291
100.376847701277
100.376862093068
100.376947176038
100.377046821901
100.377069293961
100.377166486543
100.377269703101
100.377343730582
100.37753279269
100.37755249379
100.377326809923
100.377283262178
100.37736954976
100.377468725229
100.377503541588
100.377508242275
100.377261840919
100.377196823743
100.377164272656
100.377256413674
100.377354959277
100.377414747763
100.37759141095
100.377643497285
100.377468087923
100.377365328258
100.376798902611
100.376499200198
100.376427725274
100.375783902069
100.375145384934
100.374581020365
100.373848520943
100.373578352081
100.373251503672
100.372974081432
100.372723695106
100.372531318574
100.372217992894
100.37197500801
100.371956875453
100.37238009938
100.372710950458
100.372944611728
100.37307406155
100.373336279671
100.373564636498
100.373147519117
100.373419109631
100.372585575172
100.3735950811
100.375784355419
100.376743065629
100.376692869036
100.376786994914
100.376857782757
100.376896085346
100.376947072283
100.376960367386
100.37706345095
100.377145587566
100.377239547593
100.377340030359
100.377357352491
100.377455780005
100.377515541704
100.37767882792
100.377712929374
100.377542236497
100.377430356222
100.376932885094
100.376625067624
100.376050965015
100.37551088845
100.375020918586
100.374780712214
100.374098197301
100.373869144093
100.373690957466
100.373629089197
100.373690627084
100.373355064367
100.373031924691
100.372795387158
100.372339618629
100.372557282326
100.37294990038
100.373293227395
100.373372386104
100.373024048258
100.372671278038
100.372205718999
100.372324678745
100.371792708644
100.371326030747
100.370975367113
100.370699665243
100.370476517068
100.370823948421
100.371126749671
100.371476640882
100.371878539667
100.371471598136
100.371488783097
100.371483300289
100.37154517755
100.371419055942
100.3731268186
100.37556554715
100.376525803266
100.376480038438
100.376588151652
100.376689881378
100.376753894346
100.37675938723
100.376851769273
100.376970051395
100.376965288856
100.377000520465
100.377055623302
100.377153929132
100.377159708928
100.377255757183
100.377351487677
100.377430721637
100.37744902036
100.377540604634
100.377587444822
100.377742883636
100.377747266845
100.377627911849
100.377464252702
100.37705826647
100.376726598452
100.376144021888
100.375613638354
100.375181614758
100.374554440702
100.374392686431
100.37417079683
100.374006596522
100.373949452934
100.374025796429
100.373909115281
100.37418648964
100.373869056276
100.373547273267
100.373216824196
100.372856013277
100.372472952201
100.372016814673
100.371571957456
100.370908830296
100.371205418856
100.371778843202
100.372299739027
100.372562667072
100.372886521535
100.373237322278
100.373573304462
100.37359397358
100.373383045121
100.372703621808
100.371358005987
100.370431438546
100.370652811822
100.369701052973
100.369111537697
100.367483599959
100.368398164303
100.3696936276
100.370773454259
100.371766303498
100.371574019194
100.371428074254
100.370651210294
100.369546882617
100.368625436853
100.366705007993
100.365405103667
100.364489965062
100.358969668229
100.357402552926
100.362237486319
100.363987146848
100.365209303031
100.366741876929
100.367411926697
100.36493061086
100.363212259816
100.36026007511
100.35949510591
100.357269600614
100.356899440572
100.359343805422
100.362633131182
100.364914395542
100.36658561522
100.36810732986
100.368459728802
100.369751989177
100.371117670804
100.372062975002
100.372951840912
100.373661519835
100.372531675252
100.372414148703
100.372216414265
100.375820084907
100.375562307369
100.375196835293
100.374773569987
100.374504570973
100.373797763586
100.372705726893
100.370370879205
100.368575689701
100.368619275426
100.372131354246
100.371911102508
100.367468276187
100.364119647654
100.365833398028
100.352122451233
100.354115561061
100.348077930151
100.353746740231
100.355629275067
100.365474229349
100.371395732089
100.374548279563
100.374883890545
100.375298449666
100.375159676021
100.374904051312
100.374937514934
100.374963480497
100.37493984556
100.374937977348
100.374827058018
100.374532039198
100.374492408724
100.374585522469
100.374764547504
100.374948419444
100.375374193426
100.375327554626
100.375423515653
100.375519565143
100.375594235544
100.375658780134
100.375651225589
100.375727839517
100.375767566627
100.375865802279
100.375857726258
100.375993462763
100.376048885651
100.375692582033
100.375489349329
100.375807787628
100.375781769357
100.375756369826
100.375863840116
100.375790317186
100.37589428558
100.375973304063
100.375817309527
100.37579919906
100.375686329711
100.375727219948
100.37568097145
100.375607513266
100.375585321988
100.375532125159
100.375461622251
100.375375880333
100.375318156302
100.375418998708
100.375481249239
100.375532213788
100.375557514176
100.375631022698
100.375629072998
100.375702168446
100.375684973186
100.375849787388
100.375809683744
100.375661924556
100.375682437399
100.375600185306
100.375589652037
100.375753033782
100.375727722107
100.375522276949
100.375159610722
100.3756336639
100.375432341779
100.375762913977
100.375555580191
100.375683862183
100.375553037537
100.375557653434
100.37547021173
100.375500974571
100.375536424203
100.375487611288
100.375468421288
100.37539966623
100.375374995747
100.37530265268
100.375199315839
100.375220315858
100.375089157304
100.375088747219
100.375077913932
100.375183875375
100.375274614888
100.375333201044
100.375385930897
100.375392834758
100.375460083165
100.375432824172
100.375428483617
100.375496293394
100.375475901979
100.375551937292
100.375478498084
100.375624742237
100.375447251835
100.37548246435
100.375426274193
100.375410742401
100.375500905325
100.375501093002
100.375192783281
100.374609996991
100.375247030539
100.375089011228
100.375502475652
100.375349344584
100.375451668209
100.375388923554
100.375393825023
100.375306719483
100.375371748258
100.375362271945
100.375328685786
100.375370338715
100.375343617111
100.375281213817
100.375246685987
100.375158490372
100.3750807592
100.375051996813
100.375147436045
100.375211476017
100.37528090054
100.375271853871
100.375304675614
100.375310344756
100.375336626704
100.375374362843
100.375414623363
100.375465542581
100.375051840499
100.375312058666
100.375367700714
100.375490370011
100.375586152028
100.375667991314
100.375702577826
100.375768392102
100.375814878084
100.375868506796
100.375950762676
100.375980808017
100.375988601679
100.376065542077
100.376078750011
100.376131773764
100.375959466703
100.376021385969
100.376077298401
100.376115110124
100.376268448923
100.376159178195
100.37616724099
100.376272152509
100.376148373584
100.375917143265
100.375608434259
100.374922595285
100.374038117176
100.37309296914
100.373696397316
100.374122586532
100.374273123059
100.374427712022
100.375087756676
100.375020119482
100.375006402565
100.374847983181
100.374523315056
100.37494065389
100.375214127507
100.37577888221
100.3755741839
100.375631443538
100.375597494586
100.37566679615
100.375732850084
100.375743716066
100.375810739541
100.375857820195
100.375901875195
100.375975676408
100.376000843198
100.376075202877
100.376213138518
100.376229224806
100.376386878137
100.376307186182
100.376269150281
100.376166602757
100.375654491029
100.37503953589
100.374992780939
100.375418255964
100.375453220304
100.37606658692
100.37579160626
100.37594111291
100.376035799521
100.375908595055
100.375946745098
100.375875906837
100.37596061001
100.375982830062
100.376069551348
100.376100773999
100.376162593764
100.376289399706
100.376308779499
100.376459360618
100.376493060461
100.376456859771
100.376457530759
100.37623966866
100.37626695633
100.376357046297
100.376398218039
100.376301273572
100.376249924795
100.376205023897
100.376125955604
100.376097447982
100.376000717656
100.37591689497
100.376000247351
100.37588758759
100.37574898188
100.375766145065
100.375690494624
100.375585235786
100.375506373025
100.375426083232
100.375565192992
100.375664843943
100.375743178832
100.375824234979
100.375894914939
100.375944498958
100.376039230161
100.376054734324
100.376149896
100.376214408327
100.376286369647
100.376382430612
100.376478993285
100.376559596437
100.37666916116
100.376760679299
100.376866496915
100.376963875605
100.37706827692
100.377165484101
100.377266836747
100.377361578054
100.377460032176
100.377446091936
100.377519595775
100.377530503038
100.377622561655
100.377671392097
100.377822980319
100.377799584769
100.37773605336
100.377685507933
100.377587039192
100.377296888518
100.376908558456
100.376338072009
100.375825356009
100.375421679315
100.374809959572
100.374674734667
100.374496270929
100.374484245118
100.374523573123
100.37425194247
100.374154814724
100.374432314887
100.374431889532
100.374502601762
100.374561635749
100.374299647266
100.374040612366
100.37376954581
100.373465861403
100.373127209567
100.372698286191
100.3729659857
100.373365409491
100.373664213845
100.373952816498
100.37422816442
100.374166714478
100.373862601604
100.373559032575
100.373239365328
100.372819468381
100.372284629262
100.372709553151
100.372183223423
100.371644386798
100.371177532785
100.370732556194
100.369869311999
100.370321327128
100.370996567629
100.371328749944
100.371825662079
100.371801299493
100.371570838695
100.371067392837
100.370667435477
100.369544207676
100.368792946708
100.36963916585
100.373908191497
100.375887510776
100.376125170965
100.376389906552
100.376571302593
100.376858396339
100.37674603297
100.376907121559
100.377003133133
100.377066756656
100.377100957892
100.37720145524
100.377252073007
100.377346125078
100.377443725684
100.377531686943
100.377535864391
100.377605948828
100.377622336668
100.377707167198
100.377746203321
100.377862789479
100.377823006221
100.377777973199
100.37767261513
100.377348915003
100.377042456546
100.376502121624
100.376060366726
100.375656084308
100.375087144765
100.374913101216
100.37457243095
100.374726891458
100.374520800507
100.374680560358
100.374752593304
100.374911653587
100.374654647394
100.374666923513
100.37479382065
100.374830849393
100.374795351953
100.374847563277
100.374574946678
100.374325620414
100.374061846426
100.373761242367
100.373442775935
100.373082562129
100.372632060223
100.372205674092
100.37183332253
100.37221129908
100.372670917448
100.372955836122
100.373346194141
100.373671999117
100.37396715123
100.374238185753
100.374510784614
100.374511756766
100.374451000406
100.374004924302
100.374441882428
100.373810606821
100.373122301699
100.373655037731
100.37299895554
100.372805974356
100.372354913425
100.376008853534
100.377711323093
100.377633987874
100.377527149168
100.377248509416
100.376979307599
100.37657570818
100.376006678399
100.375222145245
100.373861813627
100.375728366701
100.375555910597
100.374762228838
100.372799403845
100.371059947191
100.369321982163
100.365754809629
100.367301378193
100.356266473502
100.355210694145
100.347436407058
100.352464619591
100.352874447478
100.354659960607
100.355982687298
100.355395627292
100.353541451338
100.354730229442
100.354466845634
100.355010111494
100.355640661876
100.355449384286
100.354581458442
100.354831528795
100.35982658458
100.35353551966
100.352201128296
100.354287543244
100.353878672635
100.352873284991
100.354136357367
100.35439327774
100.355086211541
100.354893854401
100.354924135354
100.354858894693
100.357437439028
100.35773692098
100.355739154157
100.356289540286
100.359252193857
100.360588882707
100.363451674968
100.365764298132
100.367044770276
100.365281109912
100.366907159721
100.368639890109
100.369030907266
100.370732432134
100.369462125745
100.37086478079
100.371943116543
100.372867280889
100.373576345933
100.374202021462
100.374271271642
100.374477825227
100.374175542495
100.373123628612
100.373569537838
100.373091675708
100.376221086641
100.377738930655
100.378218431553
100.378128770838
100.377997732524
100.377829493246
100.377594969014
100.377322586145
100.376990961342
100.376594765668
100.376182935783
100.3753551387
100.374577391202
100.3744379863
100.375327169809
100.375167487087
100.37497594264
100.374420452752
100.374690242467
100.374829266077
100.375162393702
100.375010066243
100.375094374679
100.375349376774
100.375295014054
100.37546672217
100.374939344833
100.37269089892
100.369337697215
100.366512046783
100.365678088174
100.366677539833
100.368583751393
100.370646967647
100.372500382593
100.37402378581
100.375337290159
100.376614628553
100.378025267034
100.379623655018
100.381352634188
100.383069147321
100.384655070079
100.386124214536
100.387464339658
100.388639215876
100.3895253465
100.389968319945
100.3899280873
100.392095347841
100.393896858864
100.395133571179
100.395687634624
100.395692116837
100.395043659345
100.3937329932
100.391904103887
100.389734151629
100.387387719804
100.385114705721
100.382960599335
100.380911729643
100.37899981007
100.377293535188
100.375759910593
100.374279984692
100.372698478469
100.370904673956
100.368968407316
100.367239605832
100.366380063708
100.367224709598
100.370085888269
100.373742766935
100.376260332486
100.37680740482
100.376553668511
100.376478833013
100.37673928509
100.376818964165
100.37707347248
100.376966398646
100.376910224541
100.376960180495
100.377062815704
100.377176199285
100.377171004891
100.377270116106
100.377299725834
100.377397397024
100.37749193763
100.377579620844
100.377615882111
100.377621798486
100.377689402651
100.377704621581
100.377784701979
100.377813422679
100.377916655418
100.377892447496
100.377849523911
100.377767747645
100.377459546654
100.377181688659
100.37656560011
100.376269292896
100.375992470458
100.375751907747
100.375438903353
100.375218960656
100.374900010391
100.374958120372
100.3749077034
100.375006749834
100.375134384732
100.375051191325
100.375283119737
100.375096124892
100.374822829103
100.375022963147
100.375049100856
100.375078075962
100.375143321088
100.374933674814
100.374876496411
100.374518851007
100.374239469221
100.373967133356
100.373641051662
100.373299928704
100.372889343699
100.372651275231
100.37286693669
100.373282636944
100.37362182227
100.373951908646
100.37421893899
100.374493652565
100.374789169572
100.374757713828
100.374844900116
100.374799644033
100.374624151994
100.37481936904
100.374630405119
100.374894516765
100.374282998011
100.374690872767
100.374219772405
100.373629696635
100.373798868745
100.37394453998
100.373443567178
100.376275160782
100.377701292374
100.378290290713
100.378411637442
100.378101150138
100.377598198182
100.377194107413
100.376668847169
100.376172654546
100.375659606666
100.375246376642
100.37490319985
100.374532715479
100.372208682791
100.37093432462
100.371643983739
100.372097871788
100.372460788517
100.372756352346
100.373280839556
100.373620689009
100.374757752682
100.374424951615
100.374329363117
100.373561909513
100.375365228183
100.375522466978
100.375101219985
100.374991500562
100.373537272107
100.371501927419
100.369719117971
100.367926730309
100.366991874295
100.353267347241
100.358687828733
100.358065769772
100.355398640282
100.357918055974
100.359753016863
100.361465899096
100.361032197617
100.360262969476
100.361308583367
100.361636187487
100.361650518567
100.36153786476
100.362405033676
100.361494180561
100.36309705795
100.366398973752
100.360942949398
100.362123461728
100.363065086087
100.357942355116
100.35593660469
100.353006665419
100.359558589931
100.365896548612
100.371354062054
100.374172676888
100.374650228481
100.374886528864
100.375008049288
100.3750964538
100.375157290456
100.375187489311
100.375242516639
100.375256120707
100.375305070985
100.375351427449
100.37533961284
100.375367789986
100.375406018278
100.37529265207
100.375459753328
100.375364592836
100.375343274921
100.375383269447
100.375354300657
100.375027903443
100.375438284729
100.375287942615
100.375446018508
100.375394424177
100.375334708752
100.375346739441
100.375351197968
100.375273851441
100.375294354281
100.375282524191
100.375215640324
100.375226527255
100.375217640413
100.375158375329
100.37511657847
100.375034252631
100.374954836506
100.374794405772
100.374728425946
100.374392017295
100.374733651938
100.374748212117
100.374878276456
100.37498207683
100.375089506582
100.375135722336
100.375205493578
100.375256325792
100.375269783256
100.375338761809
100.375275515589
100.375293554539
100.375329033079
100.375348943532
100.375385759225
100.375450413736
100.375198062311
100.375272577575
100.375305403435
100.375126173037
100.374500820992
100.374725048882
100.374845498554
100.375187794059
100.375282069391
100.375261685014
100.375157253793
100.374490525098
100.374897710595
100.374952518039
100.375150807747
100.375248896915
100.375272809326
100.375251163814
100.375282244951
100.375149315283
100.374668439637
100.374949096417
100.375405863016
100.37540322642
100.375308024337
100.375114468968
100.375155276052
100.375203574201
100.375292996271
100.375425033866
100.375380471867
100.375412500692
100.37546043925
100.375439273516