/*--------------------------------*- C++ -*----------------------------------*\
| =========                 |                                                 |
| \\      /  F ield         | OpenFOAM: The Open Source CFD Toolbox           |
|  \\    /   O peration     | Version:  v1612+                                |
|   \\  /    A nd           | Web:      www.OpenFOAM.com                      |
|    \\/     M anipulation  |                                                 |
\*---------------------------------------------------------------------------*/
FoamFile
{
    version     2.0;
    format      ascii;
    class       volScalarField;
    location    "1.7";
    object      p;
}
// * * * * * * * * * * * * * * * * * * * * * * * * * * * * * * * * * * * * * //

dimensions      [0 2 -2 0 0 0 0];

internalField   nonuniform List<scalar> 
87341
(
100.09957723874
100.101588950374
100.09798340612
100.10249543466
100.109512263876
100.109748481745
100.107783839231
100.108384607582
100.108592356315
100.108915739488
100.109085145268
100.108817144414
100.110598168473
100.11014437699
100.11237766887
100.112426890555
100.109938917017
100.106499328918
100.103995100498
100.103661567369
100.103533126127
100.104961922851
100.102767615241
100.104514775476
100.106829468048
100.11098093872
100.105599837027
100.104556155823
100.103798469782
100.103599950432
100.103477985513
100.103900175508
100.104490171585
100.105483654358
100.11072659335
100.10666746909
100.104292482506
100.102470585825
100.104602322705
100.103146066502
100.103330710449
100.103670343434
100.106200520631
100.109632516358
100.111985485735
100.111833824586
100.105083123397
100.104158476939
100.101298583714
100.101401426188
100.101736858799
100.101583190453
100.101523327231
100.101318862725
100.098964369401
100.10236724582
100.10580788376
100.104263287201
100.101000511789
100.099981818474
100.099271674116
100.099952538562
100.099898041278
100.099125946492
100.100042861838
100.101075640153
100.104415005826
100.106021726025
100.102621121071
100.099212580875
100.101650232296
100.101864238272
100.101864605579
100.101998487979
100.101557892327
100.101455745259
100.104465668731
100.105492063313
100.103078544374
100.10627408242
100.109354828221
100.110872986083
100.108729266859
100.108491581989
100.109709155108
100.107869371429
100.105400423268
100.101145093814
100.106608355787
100.095088738523
100.083888929429
100.089896330319
100.091106430168
100.10122635808
100.09606041235
100.097108706952
100.099702225655
100.09868300051
100.098160913362
100.098303829205
100.097605292487
100.101974222886
100.10254838588
100.098387967623
100.098809187396
100.096030717933
100.094886809796
100.095879666736
100.095898423734
100.094958449843
100.09608146469
100.09882745641
100.098531132227
100.102719775092
100.102258522717
100.097779209444
100.098680460915
100.098510167385
100.098972430421
100.099987767745
100.097284379268
100.096149731734
100.101676537327
100.101977852256
100.098638701182
100.102346963968
100.108742405311
100.113731694722
100.106683111557
100.106505223129
100.111322000382
100.126661661557
100.096131457179
100.096698773722
100.081313629472
100.054489052313
100.055378063846
100.051114702617
100.051608958079
100.057758001909
100.087999232269
100.099393459659
100.096182437015
100.09586806997
100.100539650084
100.107180344558
100.089203198778
100.089794302399
100.091127422925
100.100044801459
100.095248777131
100.095246941576
100.100014491047
100.091170065149
100.089868922196
100.089332058073
100.087788575679
100.088270642634
100.091569981621
100.089818423243
100.049923058327
100.05199770188
100.053226151522
100.052993627954
100.052035110845
100.052076790824
100.054210334492
100.05460520403
100.058262524968
100.087611843415
100.082761970799
100.066418061486
100.060700339473
100.060540224015
100.057650336636
100.058606010443
100.053074949314
100.053248055533
100.05560506645
100.059318352862
100.059329046875
100.055624758379
100.053249200614
100.05840667213
100.057501496827
100.051181057273
100.052059442262
100.058456140786
100.058876834539
100.057995915548
100.057679901325
100.058595752542
100.058447792123
100.057580079398
100.058677656518
100.058767850775
100.059451941037
100.059618490755
100.058977185438
100.054254520441
100.055060749901
100.055054066606
100.054309707455
100.053247012824
100.054369101985
100.053985606673
100.05746085467
100.058614613168
100.059364845359
100.059662775326
100.058978759117
100.058899668275
100.059586824461
100.059475676736
100.057316552221
100.057083447328
100.057211202919
100.057413312321
100.05752454068
100.05741900822
100.05920816949
100.058317259843
100.05830334244
100.058899471135
100.058383658515
100.057457691897
100.058618321388
100.057092863071
100.056966051448
100.057145627948
100.057227226784
100.057020468592
100.057048957302
100.057309089998
100.05484162316
100.054904351171
100.054854605986
100.054987888286
100.05508672948
100.055199472869
100.05519281069
100.055185180076
100.057397874868
100.059176731785
100.059485716456
100.059283658787
100.057279706533
100.054992958951
100.054898367608
100.054754637636
100.054759838818
100.054754344401
100.054683592277
100.054727176139
100.05268776116
100.052834343444
100.052888456891
100.052808491294
100.052969245409
100.053166633902
100.053346102356
100.053366799792
100.053373369437
100.0533575275
100.055168968663
100.057451207735
100.057858757361
100.055377334477
100.05361141271
100.053140303968
100.052954149692
100.052819342917
100.052877703853
100.052842313619
100.052680497911
100.05059793996
100.050522230433
100.050863191104
100.050890630005
100.050729372636
100.050950149238
100.051391751328
100.051716808936
100.051743581168
100.051773498086
100.051818707907
100.051492110461
100.05106599523
100.050917637018
100.051074951472
100.051001011538
100.048606863333
100.04784814937
100.047656081303
100.04830273267
100.048437090648
100.048109911368
100.048381925834
100.049193062617
100.049746583503
100.049811058
100.04989656725
100.049999068887
100.049487100688
100.048692401104
100.048505291762
100.048805259912
100.046378138898
100.045961381021
100.044390847255
100.043947547391
100.045318755259
100.045726909642
100.045770248262
100.046210158747
100.046948291557
100.047915559652
100.047773801563
100.04797227891
100.048461192829
100.047613164896
100.04690728799
100.046486750919
100.041938366936
100.035944363088
100.034337948428
100.036751715747
100.036679740064
100.034851410932
100.035415352019
100.040840056883
100.042334912884
100.039533794367
100.042706873453
100.044382353417
100.044780658384
100.043786609348
100.040801851624
100.04364862007
100.065521659886
100.0647981473
100.065644874397
100.067882011244
100.075362020213
100.065009683908
100.064403434774
100.073397432999
100.07080246422
100.063287104872
100.069820008897
100.08174185197
100.079986181901
100.068784757519
100.060454494161
100.059428427258
100.057118896082
100.062261832029
100.064824958777
100.06997714351
100.063438438184
100.055959775589
100.055003347518
100.051694923663
100.046151146443
100.044933675154
100.048984984451
100.052218055564
100.053114245389
100.05670016944
100.070820472509
100.064672798739
100.068466102514
100.061920855098
100.064081657344
100.058467483855
100.069468633915
100.067251083341
100.065524275667
100.069706692576
100.088724227306
100.124480451398
100.167146208808
100.216371074747
100.266471477656
100.319890710143
100.362251490695
100.394577564071
100.431885589965
100.458250250241
100.470879494489
100.482175551836
100.452932139521
100.456379400909
100.458457334807
100.459081927498
100.458643928997
100.456988976945
100.456285360674
100.463723252532
100.461846686742
100.46294623151
100.465683654015
100.466291333086
100.465775042037
100.464528849184
100.463858630149
100.440063468083
100.452711109722
100.466557971624
100.458889869847
100.450494343104
100.438684698954
100.438007058984
100.44378291928
100.43813945885
100.416008501813
100.423073779912
100.43414019785
100.435868708806
100.425121957213
100.424873716755
100.433444228671
100.442691950274
100.440100411153
100.456108659214
100.406595785569
100.415755095198
100.418805907541
100.419718777799
100.416777887845
100.407100049186
100.411016327083
100.4120079721
100.405707534461
100.399453890988
100.404756997882
100.410152001286
100.410057094075
100.404374972703
100.396964577442
100.401285987045
100.409339689436
100.410377273945
100.459993662678
100.455982242349
100.398366195704
100.400543877824
100.39732847465
100.397373609951
100.401256045907
100.391296020778
100.388140450119
100.399125998546
100.398870530123
100.396254599133
100.399984799111
100.398748764993
100.403718124005
100.399510992326
100.397057693855
100.404781596768
100.423797244759
100.449237054297
100.448819333102
100.457482753997
100.457300662867
100.457863283523
100.459319525401
100.462840864991
100.46436451815
100.467026484962
100.463650042304
100.465218948944
100.46731022632
100.468462221378
100.462998173176
100.475161289114
100.459206653602
100.446114317844
100.444681451481
100.456578941559
100.450928040152
100.444634021979
100.441024329182
100.430303905491
100.422835149953
100.44279317041
100.462784901374
100.464875549356
100.465771148198
100.418637609948
100.417606423331
100.416375198486
100.410766639947
100.40419089764
100.409689422054
100.406231540736
100.398921365824
100.404425555126
100.408319449511
100.403971958173
100.406468967911
100.404835047807
100.407058711157
100.403531629069
100.399983530731
100.404251228353
100.403808907112
100.407277516794
100.402326667097
100.398135611451
100.408201778298
100.413045108875
100.422208766843
100.432766043947
100.435052850199
100.430766173871
100.424061878553
100.42770909297
100.461892206782
100.490885463119
100.475013745638
100.495387821593
100.510676432713
100.472613193526
100.447901067103
100.443525126063
100.460777416336
100.459422108792
100.463333821172
100.498429404036
100.487438415546
100.486944509611
100.469494101206
100.47604729422
100.46715927895
100.466628437882
100.47145779824
100.466594042136
100.483991453905
100.467355355459
100.474382223438
100.471004918029
100.471567315719
100.474631069934
100.483076786935
100.492387719282
100.494392203841
100.478930746169
100.476156811578
100.478002444673
100.484730586955
100.480236372431
100.453179047316
100.42183904747
100.419446391234
100.426600275476
100.430311434979
100.427843889847
100.417675781434
100.407962875582
100.399391248923
100.40791598553
100.391696075503
100.387445952388
100.4012114998
100.400629192146
100.410207735978
100.407349861749
100.397545453873
100.391874740442
100.406481700661
100.419729088401
100.416521778654
100.413688900218
100.407006757471
100.453784396989
100.457463285763
100.453477625849
100.411549266654
100.419430255453
100.419130223391
100.418932130522
100.4168829651
100.414549299819
100.424831845993
100.44760238057
100.456961024108
100.453650038644
100.409708139327
100.411192634541
100.391253625052
100.398720932283
100.410369975378
100.412330796064
100.405847005592
100.393476967048
100.397446791593
100.402720372991
100.416256888809
100.420626071564
100.432365336537
100.463177594142
100.498239814886
100.497102081689
100.481131506671
100.484237636558
100.485689284174
100.497836455733
100.502701769273
100.487649617393
100.487053734159
100.47856132936
100.510582085108
100.507776634489
100.506124359352
100.501588256622
100.48873990731
100.489837287472
100.503216709941
100.500403170983
100.495469072044
100.495392089794
100.498557873368
100.497638140403
100.498765496635
100.477613226706
100.488019213401
100.463126958565
100.450240848442
100.449238477878
100.45232923316
100.465881877787
100.444337572088
100.448939523674
100.44610164553
100.443417314711
100.439436806565
100.436807926083
100.465302276579
100.463669235049
100.463524943936
100.462341254772
100.456125310666
100.463865984466
100.465139284384
100.464002783601
100.46410011227
100.464385957474
100.463242175439
100.46438423656
100.46416784236
100.464865389116
100.464082416872
100.462965072114
100.465272292607
100.467411641673
100.466746351758
100.4670484064
100.467675472251
100.467885318632
100.464910746693
100.464354578894
100.461699542506
100.462109186509
100.464145092388
100.464945106042
100.466180215436
100.464872593604
100.464704425384
100.464682011663
100.465815595836
100.464819299462
100.465494921548
100.464842466677
100.464707937487
100.46429968844
100.464021700802
100.463681472843
100.463656827188
100.4632867889
100.463172719371
100.463310622925
100.463809355491
100.463544338904
100.46397941091
100.463273497817
100.463469977914
100.463113811057
100.463201088491
100.462966760187
100.463318837648
100.462926945681
100.463106126918
100.462373182669
100.460420350772
100.462687410891
100.463323800721
100.464744511897
100.465735313059
100.468960476396
100.470782189414
100.469301753604
100.471791541432
100.470784519434
100.47131703372
100.470795539275
100.471400171627
100.470950143994
100.471626941154
100.470604048087
100.471141293688
100.471356609747
100.472150579016
100.472233666943
100.476503885419
100.475585856446
100.473957782284
100.473724922158
100.472070956426
100.472196126662
100.47080886597
100.472896702568
100.473420377757
100.472104842109
100.474383542076
100.473341570802
100.473419835684
100.472675796264
100.471313204915
100.469644180092
100.468869429138
100.470450706629
100.47043386139
100.468886573162
100.474321929354
100.472253283121
100.472315459455
100.470604620371
100.469903796629
100.469004578666
100.469507534626
100.470783765561
100.470106079463
100.470917736869
100.471833792691
100.472117692378
100.471012805148
100.471708344605
100.470792948213
100.471230328059
100.470640781065
100.469814922871
100.470565836073
100.470983804266
100.467417086086
100.468020520488
100.4649654349
100.464055496276
100.46638327865
100.464367572437
100.466829496715
100.466530602335
100.468864695796
100.470045059201
100.470343525663
100.47077351028
100.470596341389
100.470916662991
100.470087532647
100.471183784424
100.470280448681
100.470666661685
100.468184551976
100.466892102858
100.468545669262
100.469651927115
100.467734984149
100.466633890334
100.466029884014
100.464111933768
100.461002985904
100.458469141561
100.455047386642
100.449382519104
100.460941890813
100.461058598469
100.460559706864
100.460404643233
100.457623982413
100.462434696842
100.465921989914
100.470325927099
100.467056985624
100.469415274506
100.468510823776
100.466667767523
100.469195468947
100.467234453977
100.466146019921
100.469093819274
100.466166409277
100.465282885291
100.467869434954
100.465403628178
100.463299411324
100.461673096583
100.461883230032
100.461178729495
100.462369169873
100.464420298621
100.461033298625
100.463459983113
100.460993510831
100.461082726503
100.462109018664
100.462965771547
100.46296297981
100.462906091788
100.462229946056
100.463009224424
100.463262413373
100.46344851179
100.463376768321
100.463546617834
100.463158750808
100.463255418948
100.46289947091
100.463094211258
100.463628819655
100.463234689561
100.463602794435
100.462988854915
100.463286472507
100.46239758601
100.463006940993
100.463462213985
100.462879310468
100.461881258197
100.461057977433
100.462147186265
100.461177090631
100.460017876845
100.461411663754
100.462137376036
100.462274186212
100.461757201401
100.459376493437
100.460986068641
100.463928993487
100.463261593623
100.461977598751
100.459694278036
100.461851505789
100.463718394446
100.463344426311
100.462598525212
100.462903676799
100.462387400224
100.463007644463
100.463719248017
100.464089057366
100.464218221984
100.464543982327
100.464746575659
100.464686802141
100.465122000006
100.465224171408
100.465322447571
100.465277993399
100.465279970624
100.465487448576
100.466208190803
100.466703304125
100.466318357581
100.465853948965
100.46558678951
100.465592607213
100.465350854837
100.46531710382
100.465345573943
100.464959138824
100.464775510331
100.464443397505
100.463968945308
100.463395651918
100.463266206855
100.46272399009
100.462399046764
100.462423576533
100.462531067634
100.462561701093
100.462211598389
100.461485466851
100.461589295586
100.462670105783
100.46284690961
100.463143101215
100.463144645086
100.463727956128
100.464415012119
100.464907640648
100.465074020265
100.465478158792
100.465664404679
100.465184480237
100.464863729533
100.466427996726
100.466512241197
100.466563272993
100.466908618067
100.466622843834
100.466191658607
100.466005413687
100.46590129517
100.465803199269
100.465694089443
100.465577562862
100.465289218532
100.465351980189
100.464961549593
100.464478847529
100.463557380959
100.463216618872
100.462742496631
100.462169243137
100.462380678482
100.462604549543
100.46268561552
100.462820257315
100.463137967245
100.463368055357
100.463769968345
100.463553418429
100.463439857527
100.463666487404
100.463251264573
100.462547685522
100.461842949954
100.463073856085
100.46315546561
100.462281303644
100.463059488229
100.46103784082
100.461334721738
100.457010817647
100.453009773112
100.456341200572
100.45679435768
100.456626231115
100.456347873145
100.456016144214
100.459455442741
100.460572386756
100.460917793024
100.461500984754
100.461937969903
100.463084410215
100.462035956487
100.458729560001
100.447011348866
100.444766336627
100.443308766829
100.442858711415
100.442708003875
100.443004044102
100.447516650788
100.441442040405
100.432728288695
100.41728496749
100.401132496036
100.427581904067
100.426059440133
100.423330209019
100.423644623247
100.427947844602
100.432548082816
100.423142776365
100.43894523139
100.452572472663
100.447183283621
100.456105044738
100.449209581518
100.446697792676
100.454656006632
100.44764537127
100.446614051348
100.453294783705
100.445068159994
100.446931551159
100.441157726321
100.448829116222
100.444287577661
100.450412195607
100.45101355673
100.454530569862
100.458624243603
100.46153087685
100.464444703324
100.462504808498
100.462680583574
100.463083481803
100.463745603143
100.461395952379
100.461685516093
100.46393098251
100.463244543395
100.462408749496
100.46295034241
100.462182328168
100.462873598122
100.457363113237
100.446646683012
100.435404147409
100.426374351317
100.419023953666
100.428031264657
100.423367518897
100.426711515957
100.420780834092
100.417838015644
100.415859517003
100.415224312291
100.417353000687
100.415956837669
100.421757724761
100.393017710681
100.378318686499
100.376865146048
100.382172000498
100.400506287194
100.400148098653
100.380268022524
100.365820814821
100.36662530912
100.337441337366
100.336327942679
100.336792313243
100.345306768034
100.334089317961
100.316704726752
100.285971907566
100.269317987875
100.306755551622
100.297095185082
100.298166922731
100.30926218971
100.339545038207
100.35025397787
100.34118443527
100.370823683913
100.393274620153
100.393705973997
100.393512218837
100.39343702219
100.392932170976
100.383496727941
100.407862325585
100.389960145214
100.4037672053
100.400157776033
100.406009779313
100.414782606474
100.427719004725
100.450122088179
100.456215264686
100.461348877247
100.46339990461
100.46237100201
100.459028181091
100.456529820574
100.435835624595
100.419100889595
100.385085584044
100.362241696156
100.347775950809
100.339021195538
100.337477295177
100.354927553889
100.344178877075
100.347270474017
100.335333753901
100.33672574711
100.335145305679
100.333245077527
100.337152424096
100.295560588839
100.282042798545
100.290781225043
100.322581118039
100.366509311154
100.396734126718
100.422264666444
100.442140956052
100.452228624421
100.457922532654
100.459807338865
100.460821778687
100.467945104719
100.501165295529
100.485394472983
100.482800473249
100.482478100534
100.480455291177
100.483915523479
100.488310490259
100.506512255179
100.494189117341
100.48388845337
100.480376300507
100.453518670411
100.43681227632
100.436196755872
100.44116141506
100.457847161753
100.446361659745
100.441334477565
100.436128501878
100.42651101796
100.427900383615
100.437416432047
100.438514819267
100.430890569462
100.431913847367
100.441412512573
100.445424347975
100.447515570012
100.460751549011
100.427317425106
100.424440979603
100.420995869133
100.412189458296
100.413086627049
100.424367393882
100.415653490554
100.415290526579
100.408715950573
100.403460374527
100.409872263511
100.415150223105
100.46413253263
100.46769416034
100.465104648212
100.469424227572
100.465964067552
100.470710683464
100.469499807227
100.473228831533
100.468851760057
100.467423338634
100.466460097476
100.468472469438
100.466555923055
100.467366247056
100.467158641457
100.466621349028
100.467110404948
100.466907797524
100.466614960156
100.469602995491
100.465791801546
100.463039830269
100.463646499519
100.463551383916
100.464003093029
100.463330342825
100.465896344669
100.468576898879
100.468962975038
100.467924845975
100.467573670207
100.46572481531
100.468039702386
100.469212059522
100.470180254336
100.471243429231
100.470172284139
100.469882607211
100.468704445093
100.468865277888
100.469407298549
100.470803688416
100.47216040547
100.473944157707
100.477183915828
100.473852898376
100.47272400341
100.472115663058
100.471282359223
100.472108032981
100.471010613206
100.470890435296
100.470605327538
100.469480853034
100.469074146202
100.470819637696
100.472085397358
100.472366204892
100.472460843208
100.472910505821
100.473889181316
100.474041951239
100.473867519351
100.473264125995
100.471793284953
100.470681808422
100.46879498192
100.466353999591
100.463254759259
100.463944688264
100.463597248692
100.463713438783
100.463662585275
100.463955911141
100.464281040137
100.464308932228
100.464764933399
100.464376748471
100.464447188133
100.464610113264
100.465780544504
100.468376993302
100.471476955061
100.47258993654
100.473180774164
100.474878072037
100.475580774498
100.475763043443
100.475421746737
100.479091257177
100.479815181384
100.479546203472
100.4784298145
100.476403468632
100.476999828879
100.479287086594
100.480343547503
100.480631844948
100.479969579429
100.477919850572
100.475290617843
100.471562511553
100.471755608552
100.471693489975
100.474888204619
100.475222086791
100.476441377901
100.477063662699
100.47878695553
100.479389607439
100.479241374523
100.478501147793
100.476578269187
100.474051157535
100.473378134958
100.474013959833
100.470659387484
100.468162335586
100.466651766647
100.466117002442
100.465948308003
100.465789548894
100.465387843926
100.465866820691
100.464897522683
100.464664228147
100.464285780297
100.464464134676
100.464675064819
100.465568597666
100.464132336477
100.465577796049
100.466763089585
100.468488859211
100.467291349348
100.468651481544
100.467536295944
100.466937764352
100.467260907025
100.467631336673
100.467498761199
100.467827082206
100.468381578023
100.466920167172
100.46673286209
100.467169155371
100.466549798226
100.465914624133
100.465382518521
100.465189143285
100.464977217335
100.465482389678
100.465471865796
100.46582315327
100.46637388156
100.466600721537
100.466717555675
100.467644405025
100.468965777562
100.470884123581
100.472773254118
100.473892312354
100.475243143448
100.476119723121
100.476599320336
100.477087905853
100.476596271368
100.475620695011
100.474767501137
100.472857467552
100.472055797038
100.472270895731
100.472987750039
100.474439885723
100.474516289113
100.475224315449
100.476516073569
100.477321323022
100.476854937086
100.4758553424
100.474899679089
100.473310160748
100.471623990673
100.471206192815
100.471960537152
100.470060224881
100.468392268612
100.468281999506
100.467014196958
100.467924710477
100.466972235399
100.466933885721
100.466150863789
100.466144031511
100.46583104107
100.465926594981
100.465603617267
100.466434998839
100.466389773567
100.467106098772
100.46690777665
100.467257090911
100.467209621962
100.466971693486
100.467114421871
100.467300645984
100.467249969247
100.467334296298
100.46669720057
100.466946942087
100.466663044142
100.467539973336
100.467317560521
100.467662594808
100.467391685703
100.467365016271
100.467526380805
100.467523917132
100.467218808619
100.467161592555
100.466869077943
100.465664405243
100.465586454538
100.465756662585
100.465300624548
100.464873822151
100.465000446225
100.463346905359
100.462485879439
100.462693976758
100.462859842386
100.464383892351
100.464130267821
100.465208240094
100.467317394117
100.467424493719
100.46669588403
100.466445185563
100.464899485072
100.462246426444
100.460929904483
100.459631783976
100.458355156296
100.458123942888
100.45956696468
100.461632718813
100.464274304158
100.463335028534
100.461282920488
100.459763208373
100.460407498273
100.462876392038
100.465660054506
100.463783718515
100.463441993646
100.465265218001
100.46662237918
100.46896408116
100.467541576129
100.466451258097
100.465543117425
100.467066789837
100.468057965762
100.46943496177
100.470542397408
100.469220044327
100.470629981062
100.470738545304
100.471068353029
100.471315948109
100.470729230538
100.470585220897
100.469769861921
100.468787131503
100.467538168448
100.46702640333
100.465515321873
100.464842270762
100.465904014701
100.464353254843
100.462141686473
100.461764058441
100.460628692894
100.461622264248
100.463591107899
100.461771009297
100.460114842185
100.459419912022
100.46021546425
100.462291273735
100.461615009161
100.461075615731
100.458863547353
100.457905388793
100.457757137246
100.460114478627
100.458486882345
100.459342269899
100.460872773761
100.463150434463
100.46525415437
100.466867161748
100.465714994458
100.464682263531
100.4635018429
100.463226891556
100.463737324479
100.463975935794
100.464628198681
100.465265936867
100.464717407014
100.463841587613
100.463332370608
100.462805515141
100.463614144079
100.462267526461
100.461729540756
100.461421480238
100.460653600741
100.461346348371
100.461176446733
100.460769043146
100.463233631176
100.464180922623
100.464307121202
100.464948966889
100.46519037598
100.465105306745
100.465327733086
100.465413836631
100.465510021264
100.465006339979
100.464789119631
100.464465579088
100.46417925335
100.464989779841
100.464855464466
100.465131773101
100.465114787564
100.465577929608
100.465495590836
100.465333432177
100.465236873326
100.465341228523
100.465279217915
100.465141187022
100.465027326196
100.465174179797
100.465358357341
100.46531794665
100.465434315598
100.46525500642
100.465173043125
100.465320849018
100.465458034535
100.465717040449
100.46540504539
100.465406585145
100.46580925761
100.465864004525
100.465684156312
100.466077522389
100.466407552211
100.46638882402
100.466122397874
100.465433201797
100.46549695511
100.466594722901
100.466479595827
100.46621178065
100.464984798959
100.464092664793
100.464891801947
100.46391639134
100.4629063474
100.462869632107
100.464388425099
100.464661372931
100.464735099124
100.462678490667
100.461380508825
100.460921795204
100.460706782218
100.458137695718
100.457115312191
100.456806188518
100.45689441129
100.458198513117
100.457768323693
100.456396629578
100.457037940174
100.457287075955
100.461143862322
100.461938575033
100.462904790285
100.464071197628
100.466456712894
100.468043894942
100.467508506328
100.467609936379
100.466939695957
100.466612025761
100.466282606981
100.466646088372
100.465958139965
100.465587834185
100.465430337087
100.465291029455
100.465418047836
100.465500354686
100.465802537177
100.465999061743
100.465682510128
100.465901234931
100.466176689739
100.466303489729
100.465933539227
100.466229195478
100.466615333996
100.466921445075
100.466790552857
100.46691296694
100.466957065278
100.466768282483
100.467443468034
100.467382276918
100.467809956298
100.467411749403
100.466859225347
100.466526885254
100.465793301662
100.466306339922
100.46609664565
100.464015414731
100.462104307125
100.460316119925
100.458420443573
100.457805667158
100.461399205123
100.463595680366
100.463532647285
100.464283272543
100.465038625399
100.465807707388
100.466848542382
100.469166732678
100.473752466463
100.475774459438
100.471889885688
100.46284310495
100.464968206677
100.474838789449
100.512363879333
100.520447737603
100.476814572583
100.432938037525
100.38405197662
100.357129343912
100.374513736144
100.371721082925
100.369254787979
100.369442548263
100.370360840079
100.37131377113
100.372523455134
100.374199024566
100.37621123055
100.378239444095
100.379954569345
100.381200351102
100.381896713417
100.380298496019
100.378482029428
100.376512586747
100.3744954285
100.372608121789
100.370958626406
100.369593521687
100.368496184106
100.367596211114
100.366828315653
100.36617164271
100.365671457505
100.365437550884
100.365560203641
100.366143717429
100.367366253606
100.369223502594
100.371337058966
100.372729871691
100.372983580244
100.372940259273
100.372986201741
100.373042146488
100.373038376382
100.373067085264
100.373099029155
100.373134026367
100.373175178634
100.373453450348
100.373546959592
100.373614788332
100.373463672084
100.373362332245
100.373330362695
100.373162795607
100.373071693418
100.37304300382
100.372987296476
100.373037762058
100.372980536098
100.372955493462
100.372959738349
100.372936842584
100.372941258791
100.372863826765
100.372840566168
100.372883148758
100.372884534945
100.372898201964
100.372906266345
100.372943552036
100.372873358455
100.373035975995
100.373102570619
100.373302223963
100.373204580249
100.373115443911
100.372878550159
100.372896614977
100.37285825475
100.373045350477
100.372939565848
100.372905173167
100.372802674826
100.372842695804
100.372804503613
100.372818025129
100.372766135718
100.372805004545
100.372752310745
100.372674814277
100.372576531271
100.372371795816
100.372573165976
100.372694339306
100.372719299776
100.372750299215
100.372743799316
100.372723184482
100.372763095413
100.372793543171
100.372786231888
100.37286114379
100.372845381509
100.372822666842
100.372760986712
100.372585183382
100.37274587753
100.372613511784
100.372748935187
100.372783632189
100.372724571226
100.372740912836
100.372737692256
100.372712448959
100.372694657411
100.372699119443
100.372656485447
100.372623334755
100.372489199574
100.372132506858
100.372496055753
100.37260176403
100.37262166085
100.372649659662
100.372652296444
100.372668387589
100.372685684024
100.372671737399
100.372625614943
100.372654126736
100.372552414894
100.372572964424
100.372653731208