/*--------------------------------*- C++ -*----------------------------------*\
| =========                 |                                                 |
| \\      /  F ield         | OpenFOAM: The Open Source CFD Toolbox           |
|  \\    /   O peration     | Version:  v1612+                                |
|   \\  /    A nd           | Web:      www.OpenFOAM.com                      |
|    \\/     M anipulation  |                                                 |
\*---------------------------------------------------------------------------*/
FoamFile
{
    version     2.0;
    format      ascii;
    class       volScalarField;
    location    "0.2";
    object      p;
}
// * * * * * * * * * * * * * * * * * * * * * * * * * * * * * * * * * * * * * //

dimensions      [0 2 -2 0 0 0 0];

internalField   nonuniform List<scalar> 
87341
(
100.101078281941
100.103090529695
100.099484571856
100.103996373042
100.111013091894
100.111249281159
100.109284567849
100.10988518157
100.110092780534
100.110415948789
100.110585042708
100.110316817726
100.112097470285
100.111643283205
100.113876242565
100.113925161962
100.111436745273
100.107996676246
100.105492045831
100.105158200558
100.10502928167
100.106457849848
100.10426328982
100.106010256591
100.108324803233
100.112476195646
100.107095127716
100.106051542832
100.105293997952
100.105095627775
100.104973922492
100.105396359272
100.10598671892
100.106980598182
100.112223918058
100.108165228032
100.105790667194
100.103969188922
100.106101329215
100.104645441198
100.104830572138
100.105170460411
100.107700887831
100.11113311769
100.113486249648
100.113334651109
100.106584117927
100.105659347346
100.102799271569
100.102901902099
100.103237026268
100.103083091905
100.103022792107
100.102817814738
100.100462947939
100.103865462937
100.107305711116
100.105760562187
100.102497306063
100.101478212155
100.100767820537
100.10144840016
100.101393638994
100.100621354349
100.101538132323
100.102570798727
100.105910144068
100.10751696615
100.104116517457
100.100708167693
100.103146074376
100.103360360186
100.10336116886
100.103495388453
100.103055289614
100.102953481461
100.105963868044
100.106990808313
100.104577639888
100.107773442275
100.110854596662
100.11237302004
100.110229478381
100.109992015321
100.111209756367
100.109370171807
100.106901324363
100.102646166425
100.108109313487
100.096590283254
100.085391712785
100.091398970289
100.092608765849
100.102727618435
100.097561277296
100.098609288108
100.10120256327
100.10018296418
100.099660504506
100.099802919009
100.099103995382
100.103472562085
100.104046276417
100.099885120441
100.100305724839
100.097526887348
100.096382810954
100.097375372255
100.097393863373
100.096453717833
100.097576488267
100.100322196173
100.100025836162
100.10421460753
100.103753744867
100.099274663274
100.100176150427
100.100006181767
100.100468849101
100.101484631186
100.098781680724
100.097647424276
100.103174656064
100.103476709147
100.100137923528
100.103846468858
100.110242289062
100.115231833016
100.108183457125
100.108005779011
100.112822788431
100.128162562776
100.097632800884
100.098199507025
100.082814837231
100.055991958918
100.056882448542
100.052619587693
100.053113510627
100.059261335898
100.089500859959
100.100894312605
100.097682794874
100.097367842689
100.10203897411
100.108679038946
100.090701396586
100.091290642288
100.092622135789
100.101540444142
100.096744074006
100.096741916188
100.101509279857
100.092663771718
100.091362595609
100.090825842283
100.089282868183
100.089766524311
100.093067755099
100.09131818822
100.051423506389
100.053499368673
100.054732360568
100.054502077975
100.053544574851
100.053585829115
100.055716576457
100.056107647078
100.05976307767
100.0891118024
100.084261210295
100.067916872524
100.062200573204
100.062043152641
100.059155356601
100.060104273233
100.05457313583
100.054746380365
100.057100223408
100.060811582995
100.060821128685
100.057116165457
100.05474078267
100.059899217363
100.058996628875
100.052678813815
100.053556877458
100.059953411024
100.060381829739
100.059507734307
100.059196245545
100.060113689838
100.05996552902
100.059092096359
100.060198401913
100.060276132367
100.060940581926
100.061105483156
100.060466158395
100.055747984247
100.056550780972
100.056542159009
100.055796845097
100.054733344448
100.055858222668
100.055478270104
100.058949691446
100.060098711325
100.060861959711
100.06117290509
100.060499823519
100.060428137173
100.061117158123
100.061004527151
100.058867533374
100.05862059233
100.058729812017
100.058910396637
100.059003937904
100.058880953468
100.060685843543
100.05980252541
100.059784039341
100.060377526741
100.059861677861
100.058940529653
100.06009036826
100.058544466162
100.058440060844
100.058642648414
100.058745939296
100.058558239172
100.058599303425
100.058864066564
100.056442285528
100.056496740488
100.056420113269
100.056523333839
100.056586111045
100.056665430063
100.056627363518
100.056597223186
100.058845337258
100.060645391204
100.060950382801
100.060748132086
100.058721144796
100.056392876227
100.056317453256
100.056208617345
100.05625696297
100.05628535257
100.056249161292
100.056314589005
100.054343482669
100.054512904037
100.05455191188
100.054434171832
100.054534658811
100.05466852642
100.054790045308
100.054753464694
100.054719307049
100.054680329499
100.056567277409
100.058891513498
100.059305499017
100.056790029052
100.054954703032
100.054466511358
100.054314955374
100.054238817049
100.054365999009
100.054397362804
100.054294212566
100.052293145497
100.05229287238
100.052662439997
100.052675438042
100.052448605299
100.05256196692
100.052896179036
100.05312733932
100.0530507134
100.053016695737
100.053009518044
100.052694598968
100.052332045971
100.052280077756
100.052559404876
100.052596531621
100.050262015675
100.04966364401
100.04960764707
100.050292322042
100.050400074666
100.049953989849
100.050059038885
100.050689119914
100.051107150297
100.050996077673
100.050963441726
100.050980453929
100.050492576538
100.049805406026
100.049788698005
100.050287617284
100.047848402463
100.04772914764
100.04640963694
100.046186359411
100.047666735516
100.048022035289
100.047847080623
100.048014882174
100.048444604653
100.049190772467
100.048732344881
100.048719354735
100.049061251511
100.04825735406
100.047749249891
100.04762036541
100.042826500315
100.03735488619
100.036377565442
100.039264620925
100.039511696102
100.037832854068
100.038267642445
100.043311497287
100.044345470561
100.041050248019
100.043731171276
100.045017510347
100.045025078285
100.043756368828
100.040863924012
100.044054010417
100.065339783856
100.064921368918
100.066280886849
100.06886565184
100.076559561417
100.066618035075
100.066525985005
100.075984372455
100.073807133668
100.066778746579
100.073705942048
100.085920812166
100.084351217101
100.073285268205
100.064493931634
100.063204671121
100.060455520408
100.065145673821
100.067500148021
100.07277449018
100.066587970901
100.059408502614
100.059009644566
100.056192601094
100.051077172951
100.050179776174
100.054315266189
100.057532186155
100.058433468919
100.061968895176
100.075254975319
100.068714785778
100.073025753385
100.066433378959
100.067825799543
100.062016184744
100.07335391114
100.071968471843
100.070866568912
100.076157779155
100.096195189019
100.133284624787
100.1770240873
100.227858757619
100.278392946451
100.33241483181
100.374831240183
100.407466537192
100.445463806551
100.471180262068
100.483832809762
100.493129307085
100.462040090589
100.466208007249
100.469058841869
100.469683820215
100.468657325968
100.467065246892
100.467074618186
100.475028659438
100.473266650107
100.474888993595
100.477473234552
100.478771713127
100.479652122729
100.478012757558
100.477125543382
100.454682100614
100.467476845225
100.48162376519
100.471736041317
100.463355421945
100.452580103863
100.451773067137
100.456684296002
100.450752781552
100.430939449986
100.438474885369
100.44831987372
100.450773808177
100.441247147226
100.441828024516
100.448418630808
100.457512319246
100.455135764769
100.470055416774
100.422623936879
100.434658649765
100.438116039782
100.437286915473
100.43397888959
100.422874461871
100.427157466244
100.428421450074
100.421795091952
100.417089245426
100.4218861736
100.426073088302
100.426415207149
100.421680270328
100.415145954359
100.419170652638
100.428033088625
100.427348582199
100.47362478292
100.471766696204
100.415426480294
100.418845182881
100.417484589129
100.414044932076
100.419653975918
100.408653956952
100.405616516737
100.419141394196
100.417402240046
100.41527302185
100.417620546163
100.415155764675
100.421436160168
100.415570031374
100.409151493223
100.418773336089
100.433748928575
100.459062691745
100.458414703465
100.46771865817
100.467252699214
100.468221715407
100.469731280154
100.472975040714
100.474558932537
100.478118595942
100.474136301122
100.475363291319
100.477764830415
100.480554330169
100.47471060605
100.48440310685
100.468418108352
100.455522919576
100.454037607256
100.467035573007
100.461186048615
100.454220593444
100.450271575261
100.440319591588
100.433870023954
100.453265541838
100.469232021629
100.471759977775
100.472893972976
100.428831513279
100.427355676274
100.425888162074
100.421118365816
100.415360228548
100.420234399831
100.416939987892
100.408569362042
100.415176356264
100.419654232975
100.414298562811
100.417492555525
100.41638614188
100.417824306285
100.4174574119
100.413863645544
100.416685727467
100.414452506623
100.418866608007
100.412619814746
100.407307783461
100.416810364246
100.421251805331
100.430809362903
100.440385473306
100.441874817943
100.436842431911
100.429621404053
100.429751531493
100.462579261505
100.490345703572
100.474461684756
100.495119500031
100.51063727102
100.473774929007
100.452747800719
100.45473186536
100.471639707988
100.47298373297
100.473655470955
100.50763873049
100.49915460309
100.500458697621
100.48443904733
100.491173558201
100.481938772448
100.480983515212
100.48590407391
100.481490580958
100.495041158547
100.4773726121
100.488308157607
100.484826398652
100.486131170107
100.489462554859
100.498636395606
100.50887433086
100.510833582412
100.494448125983
100.493143605365
100.496409879088
100.500177388579
100.490255483064
100.462972547829
100.431873620192
100.432858044667
100.440284840036
100.444830975805
100.442913476262
100.434227553507
100.424955229025
100.416739353771
100.419688011453
100.405119776973
100.399933538888
100.411004472942
100.414159180105
100.425839019047
100.422801503266
100.41199736464
100.402245331277
100.420195893158
100.427584715418
100.424585596392
100.422491993733
100.41796410932
100.461270900257
100.465108530766
100.46358267299
100.422841532996
100.430485282102
100.430709493163
100.428168834678
100.424977843618
100.422765586462
100.43377811325
100.453621135418
100.464360026332
100.462486719358
100.418567599243
100.421238594646
100.40432319208
100.412404639009
100.422780356394
100.424087660154
100.41376067275
100.403314909271
100.39919392186
100.404168412229
100.417239603776
100.411585267717
100.427663153232
100.457755866041
100.490724637172
100.488214548211
100.4757375471
100.477800332913
100.476674565847
100.487590860783
100.492081906176
100.478285112301
100.479018162322
100.472093657474
100.498996420041
100.495618613122
100.498021680261
100.493647508732
100.478754233108
100.479194053652
100.491956700782
100.489602356448
100.484489615517
100.48450068834
100.486519825552
100.484328168698
100.488319847247
100.471657176682
100.477529498681
100.455528057816
100.442184943749
100.44099370074
100.444061830835
100.456318061888
100.437977936322
100.441184997326
100.438581305597
100.434968716303
100.432375244139
100.432612626711
100.463723920004
100.463639452947
100.464369895765
100.466780836757
100.462381026219
100.463819164907
100.46492404131
100.46591893761
100.46563623059
100.466687743798
100.466720692632
100.470150011243
100.467794484577
100.467923814235
100.466609319548
100.465305458638
100.464727014347
100.465084094153
100.465926958079
100.465799224352
100.464593650551
100.46500855839
100.465140488049
100.463956060247
100.466492966896
100.466225217152
100.465436453335
100.46849809142
100.467353632321
100.467798812869
100.468346170981
100.468968123576
100.468857448678
100.469569316715
100.469931382815
100.469962358784
100.470755984648
100.469895899942
100.470644568461
100.468728540639
100.469090206032
100.467712551581
100.466216769596
100.466384289634
100.464358559381
100.464074708488
100.460866213719
100.460661072119
100.459253720491
100.460749538309
100.460066753919
100.46154463134
100.461088449933
100.461347026248
100.462930420273
100.463239859303
100.467441723506
100.471065592697
100.473066074668
100.475340486793
100.475812836368
100.473774951548
100.473871897443
100.473279768004
100.472768291402
100.473774383585
100.473382327143
100.473545650415
100.473462719135
100.473374490413
100.473243410041
100.472722650266
100.473003995597
100.47357412984
100.474130777779
100.47392364558
100.474561243837
100.474427322896
100.474477453283
100.474452644722
100.473824303886
100.473631508974
100.473045613391
100.473160707045
100.473884377684
100.473742858593
100.474782062209
100.474877486781
100.473551179924
100.473480146662
100.47398454537
100.473327424757
100.472235882136
100.472814967078
100.472885828455
100.470923483746
100.47246125885
100.472805624808
100.47273335192
100.472765514055
100.472951586613
100.472169915338
100.473215102368
100.473763315004
100.473052587403
100.47314741253
100.473753746928
100.473987606897
100.474066612725
100.474261467865
100.474482128387
100.474438541032
100.474645139476
100.474546822457
100.473662768726
100.473690596117
100.473497016979
100.473582373492
100.474854150458
100.47370152305
100.47340164365
100.471376252797
100.473441647559
100.474284614347
100.474362247771
100.473831798977
100.47467387753
100.474239155506
100.4741785977
100.473938989379
100.473354046957
100.473576300171
100.473023853265
100.474364187306
100.473044511341
100.471237320303
100.472228512502
100.472245896087
100.470849634866
100.472388707171
100.473601281313
100.471693250076
100.471232789256
100.468191773339
100.46439624933
100.458621190576
100.465699896732
100.466016427687
100.466139582115
100.466315269877
100.465495484163
100.469474018304
100.472083955218
100.473732141808
100.471963448662
100.473658387845
100.473362998142
100.472974609559
100.474079453917
100.473437721864
100.472975224065
100.474132890398
100.472838797809
100.473617884914
100.474434590894
100.472624630993
100.472942910347
100.470259773385
100.472716639609
100.469504085876
100.467927167004
100.47064734546
100.471732264519
100.473361810925
100.470408467411
100.467873159761
100.462490155453
100.460588066267
100.461892586219
100.461670699874
100.460470970254
100.461288623845
100.461341414495
100.461344263119
100.461787816611
100.461624791019
100.463687655627
100.464551948031
100.465476460629
100.464454663115
100.463696753961
100.463023590695
100.462172161054
100.4617459685
100.461112816953
100.460876465123
100.460859686078
100.461199339488
100.459985967291
100.461440750458
100.462648472758
100.462690851734
100.463654488871
100.466425166367
100.469592270264
100.46906007576
100.466828394296
100.463453696326
100.463140129504
100.463849683672
100.466050803467
100.465491340693
100.46227862456
100.459864149815
100.459211818119
100.462303532627
100.461274357497
100.465448233613
100.464282056374
100.466619431647
100.467167561664
100.46778775531
100.468463020296
100.470600360241
100.470259507346
100.470884908384
100.470393160012
100.470077724212
100.469040855943
100.468568742816
100.467501285642
100.466642187443
100.465829252321
100.466260443737
100.466889720844
100.466203787219
100.466808846473
100.467321620607
100.468346166061
100.468596624496
100.469602990814
100.469395378539
100.469863064595
100.470677341661
100.470462127139
100.470819155843
100.469788898259
100.469788713933
100.468631341688
100.467280014866
100.467320737163
100.465725776422
100.466549106837
100.46587385233
100.465665159475
100.466965783901
100.468092393943
100.46784692492
100.469224330142
100.470913983745
100.47053170988
100.47039626406
100.469963946692
100.46969958508
100.468349818724
100.467046364627
100.466471087983
100.466027112063
100.465303603837
100.465783779551
100.465816185279
100.466525426568
100.466563488976
100.466906074856
100.467482011353
100.468128229301
100.468409718639
100.469097811365
100.469616620753
100.469813518022
100.47004684524
100.469933761855
100.470281133268
100.470180350631
100.470017774984
100.469218203022
100.468450280316
100.467854367206
100.467163908567
100.466709805882
100.466013741942
100.465368755124
100.464830385629
100.463993981552
100.463253996877
100.462974927629
100.462541778241
100.462019008104
100.460753619702
100.461051319057
100.461571300188
100.461694048259
100.461606454191
100.459313562404
100.458457460142
100.454241131705
100.452765144554
100.454211917579
100.460041855213
100.461516933365
100.464928271533
100.465839401106
100.466946859098
100.46951376613
100.469355464015
100.469314440222
100.470107587875
100.470146559395
100.470705018958
100.470384969577
100.467285864709
100.45734918652
100.455169816252
100.453666259052
100.453403099082
100.454386545794
100.456233983681
100.461367836545
100.457283844293
100.450329636
100.435962954751
100.420218258091
100.443330679854
100.439858451533
100.436593725457
100.436768794034
100.440403119872
100.444265528997
100.436708562581
100.45158535068
100.462894128414
100.45795805766
100.465739491508
100.459890198112
100.457571449631
100.464845854876
100.457871147875
100.45757406431
100.464108969797
100.455408190546
100.457895939179
100.449449332692
100.459485371127
100.450613144031
100.45381163585
100.450272660969
100.449580230583
100.450839867133
100.454176359775
100.459831313808
100.462800325289
100.461324204902
100.462205899093
100.462501186323
100.461378111345
100.461559643663
100.463565113633
100.463025648239
100.461269949636
100.461492378414
100.457146914332
100.452695190558
100.443876727519
100.432017794569
100.420094196376
100.415544042373
100.415128225566
100.427083184776
100.424331376272
100.433701329372
100.429758087345
100.428508343317
100.426959854778
100.427937688853
100.430433847895
100.429631356423
100.435476657974
100.407491748991
100.393368925217
100.393186218738
100.398508811007
100.415992763678
100.415828492769
100.398282670226
100.383768345513
100.383898433262
100.354343822579
100.354392936466
100.355921530646
100.366005440675
100.356547563835
100.337950298848
100.306057612753
100.289048491347
100.325700283782
100.315447656762
100.315259063852
100.325579008417
100.355982856327
100.366055951385
100.356068491768
100.385735026476
100.407697472254
100.407603280643
100.406073016512
100.405177182248
100.402711118673
100.389686164293
100.415524126361
100.393713126351
100.403730148324
100.394455299517
100.394889726561
100.398064695173
100.406141557056
100.432150762579
100.438096577108
100.447353841788
100.458682061029
100.456149908174
100.446639044934
100.434242500948
100.410357659957
100.391383175083
100.359474098174
100.338638544187
100.329147808919
100.326022495372
100.331035571629
100.351846595866
100.343214105188
100.352077729243
100.341521283614
100.346127088753
100.345599588855
100.345587514551
100.351046416155
100.308720893707
100.296282926061
100.305712377614
100.337696988435
100.38122088899
100.411106019071
100.4344772769
100.452243746271
100.460643796477
100.465595280703
100.467054814531
100.467712475112
100.477087619173
100.511341871448
100.493336258808
100.491434393022
100.492796090554
100.490608175393
100.492528641883
100.495307544521
100.514175608484
100.499948441377
100.494116984293
100.489201042138
100.458424106501
100.44280011714
100.442697611143
100.448006948564
100.465224588553
100.453392649115
100.448560546653
100.443885235396
100.435306474815
100.43763947885
100.445789500898
100.448194944774
100.4416759163
100.442307509187
100.451521437837
100.455672363613
100.457372388318
100.468933086046
100.438397810312
100.436206684662
100.432173072766
100.422351369482
100.422884926509
100.435218466365
100.426421015375
100.426033722977
100.418700895436
100.414657930631
100.420802896585
100.425759946353
100.473038248019
100.477058285236
100.475748627104
100.481943935986
100.473492739005
100.477144332003
100.474377862586
100.478245118181
100.478344469059
100.476778526789
100.47546157642
100.474504494501
100.473113537703
100.473784031258
100.472075038093
100.471863990183
100.47457893765
100.475711297073
100.476703617781
100.47599948377
100.476009926218
100.474471221886
100.475305803742
100.473224868035
100.472889895099
100.473143733055
100.473877920998
100.473741174663
100.473848079654
100.474219058353
100.473285167215
100.472806968339
100.473307746666
100.474814665335
100.475794111074
100.476109524589
100.475832279949
100.47507174272
100.473933754569
100.474827957415
100.475291739884
100.475736851468
100.476375169419
100.476746899343
100.477078491719
100.476675387028
100.476577690096
100.476142601703
100.475415122242
100.475531942182
100.475242643411
100.47515885958
100.47531151253
100.475179746472
100.475563191362
100.475933634812
100.476168378623
100.476235040443
100.476330204914
100.476374726419
100.476775411254
100.476809312593
100.476760238773
100.476695211548
100.476484020684
100.476258880799
100.475978988628
100.475063488926
100.474693692527
100.473855166105
100.473303298832
100.473439520465
100.473012460198
100.473912913213
100.474908028419
100.474729284332
100.475416166185
100.474947336718
100.475005622645
100.475137369944
100.475591518819
100.476463129251
100.476734557365
100.476721765044
100.47662254028
100.476759934625
100.476776362076
100.476828217038
100.476830540927
100.477211862051
100.477316317591
100.477313600175
100.477234280439
100.477147464946
100.477001863812
100.477127411522
100.477175061115
100.47718472093
100.477105389867
100.476954285424
100.476768674161
100.476505367968
100.47629898166
100.476598462233
100.476856101078
100.476765274891
100.47683106764
100.476851576177
100.477158923851
100.477281906617
100.47723316654
100.477116426708
100.476896911534
100.476960511898
100.47701369057
100.476926471018
100.476744892857
100.476602713727
100.476416160879
100.476046929053
100.476088971643
100.476017578746
100.476281562096
100.476450753157
100.475780858048
100.47613725445
100.475686918
100.475840967824
100.475846813142
100.476504847485
100.47607852223
100.47653370266
100.476839175185
100.477288059674
100.477509047103
100.477289544822
100.47815099226
100.477531523778
100.47760552645
100.476981650238
100.477532203935
100.477446481916
100.47764425825
100.477555004948
100.477649613358
100.477605880258
100.477103674963
100.476818267609
100.476626792551
100.476181583423
100.47616354586
100.476562297432
100.476597464012
100.476936489878
100.476884397061
100.477060607491
100.476321938236
100.476621389673
100.476611096682
100.476823759976
100.476765789485
100.476652396673
100.476672944816
100.476544329939
100.476601984428
100.476612858665
100.476416426977
100.476384048528
100.476359902718
100.476331181633
100.476423125054
100.47636557763
100.476449714436
100.476283400346
100.47645425877
100.47662289012
100.47670816521
100.476871373148
100.476928853285
100.476614813736
100.476712883334
100.476578563707
100.476709981461
100.476772164832
100.476605317256
100.476934923398
100.476899512235
100.477317590728
100.47670389061
100.477068718785
100.477242251507
100.477638390852
100.477016968103
100.477346528135
100.476655150445
100.476820557944
100.476795587223
100.477150417354
100.477375815833
100.477210392281
100.477505616949
100.477316834331
100.476930580381
100.477152358483
100.477162258425
100.477119336053
100.477038966671
100.476677543025
100.476152707083
100.47517976238
100.474198440501
100.474319876744
100.475404479683
100.476148974652
100.476758122691
100.476160378432
100.475116154887
100.473879183322
100.472654803904
100.471160064869
100.469532519226
100.468912859012
100.470694288479
100.473240057317
100.474556717636
100.475571155366
100.474440884102
100.474306226203
100.473590085726
100.473352206002
100.4727052139
100.472271083836
100.472280995707
100.472336384215
100.472353353797
100.472263960414
100.472510654548
100.472273969385
100.472018429132
100.472817354849
100.473126773671
100.47341964331
100.474045521331
100.47532750232
100.475644697633
100.476198892626
100.476035744664
100.475979688473
100.475614795312
100.4753287912
100.474858264473
100.472924916938
100.472696925717
100.473510367895
100.474505058865
100.47521130344
100.475991160267
100.475919706874
100.475702559527
100.474896862568
100.474204563634
100.473203538663
100.474603931758
100.475629835841
100.475863773096
100.476503854343
100.476299376546
100.476684843447
100.476422069739
100.476229680434
100.476232913188
100.476121754082
100.475427059264
100.474526086126
100.473553498409
100.473499505967
100.47236520311
100.470270398533
100.47056350009
100.470504068529
100.471080041033
100.470050555441
100.470383355318
100.470848770748
100.471370617046
100.473581964264
100.475457400639
100.476358093293
100.476663840423
100.476281833173
100.477044082345
100.4765363585
100.476255919912
100.47610998213
100.475317604486
100.47343789639
100.473360584023
100.470869496903
100.467955701531
100.468150626896
100.468474214243
100.468513771692
100.472438342249
100.475792303178
100.476228437405
100.477081915842
100.476365735073
100.476202126007
100.476033528721
100.476040563518
100.475922117112
100.476338006693
100.476382294564
100.47660605229
100.47638026123
100.476582807925
100.476673416856
100.476432379188
100.47652889541
100.476663626842
100.476722765039
100.476606927701
100.47647784334
100.477311764752
100.477065798875
100.477247754161
100.476500338119
100.476118948218
100.475848813573
100.47579464446
100.475693698405
100.47595003175
100.475862576702
100.476177721607
100.476819459467
100.476948648068
100.476410489485
100.475605484054
100.475690922321
100.47461949024
100.475812052419
100.475718086263
100.476158527513
100.476119996793
100.477210310679
100.475852436959
100.476215000871
100.476203933744
100.476419154711
100.476209417716
100.475300698157
100.475322698027
100.47587184915
100.476528978207
100.477180316979
100.477235851133
100.476417597489
100.476266610134
100.476211025264
100.476498736475
100.475759525565
100.475814473673
100.475862840041
100.475942185017
100.476145623767
100.476102308205
100.47617206561
100.476041292707
100.476223433517
100.476524196494
100.476445654006
100.476622427618
100.476376651256
100.476276695284
100.47657873508
100.476649589626
100.476539553165
100.476752533574
100.476639508045
100.476510768713
100.476581825117
100.476075266149
100.476328227268
100.476054794857
100.475936535289
100.475671026622
100.475984581137
100.475975235686
100.476129316696
100.4760120694
100.476170705116
100.47552310867
100.476574384952
100.475592137808
100.472310412193
100.467459171618
100.462179234402
100.464094884057
100.465403259929
100.464790505779
100.468168142166
100.471195392842
100.473438887963
100.471480456177
100.472828236996
100.474942093938
100.474735123449
100.475294318843
100.476470933227
100.478062747243
100.477020797286
100.477066033402
100.47633423902
100.476598022472
100.476309368324
100.476624444187
100.47588613097
100.476257555637
100.476196347618
100.476335228992
100.476130535788
100.476056878623
100.476302552565
100.476498265787
100.476392041979
100.476506632192
100.476575382588
100.476738523853
100.476660158513
100.476648905989
100.476599505983
100.47642298145
100.476649719332
100.476651764466
100.476503001902
100.47631228119
100.476093719731
100.476334932757
100.475651922434
100.474868672493
100.475734269669
100.475043573468
100.472136388473
100.467983035405
100.463400218862
100.459351469556
100.45583379932
100.452454656015
100.451494425507
100.450987021688
100.461427592189
100.464426386933
100.489311467716
100.478982264613
100.450412503064
100.421195333642
100.385761181301
100.36617288563
100.379959047571
100.37730266423
100.375592211657
100.375772981389
100.376334875077
100.376936825243
100.377862503135
100.379212792861
100.3808378414
100.38228762166
100.383267140508
100.383822937088
100.384058074975
100.383109251456
100.381885723607
100.380344666105
100.378556047736
100.376760098416
100.375380932806
100.374675099706
100.374679447729
100.374994320501
100.375167931794
100.375247230714
100.37536518536
100.375450486974
100.37544988697
100.3753711169
100.375206928114
100.375005622593
100.374793303547
100.37480949902
100.375079661993
100.375281698679
100.375380885588
100.375411335041
100.375459708398
100.375497115461
100.375569917721
100.375617081067
100.375665412557
100.375808117903
100.375836822031
100.375857082901
100.375810360604
100.375794917268
100.375723542444
100.375701663139
100.375601571082
100.375631117405
100.375570393547
100.375513701883
100.375438954436
100.375399779071
100.37535169131
100.375317100149
100.37522686024
100.374997847453
100.375220251501
100.37527366198
100.375305790749
100.375352966078
100.375392077628
100.375458072849
100.375495144079
100.375630015156
100.375672563949
100.375778967863
100.375547932266
100.375324282835
100.375246194552
100.37540198678
100.375349768067
100.375629552636
100.375593429326
100.375555335531
100.375422389188
100.37537908336
100.375318235158
100.375296178785
100.37523328789
100.375219587045
100.375146299307
100.375091021721
100.374841738865
100.374499899208
100.374893558007
100.37506188824
100.375109882941
100.375168674452
100.375222086525
100.375210750369
100.375299090576
100.375339534628
100.375380714902
100.375507933839
100.375531776517
100.375487065864
100.375390594177
100.375283643362
100.375477516119
100.375341784445
100.375463155626
100.375443032793
100.375324491814
100.375304463396
100.375264619381
100.375189677177
100.375171998411
100.375117133999
100.375055419926
100.374993793157
100.374826141273
100.374399776107
100.374841630964
100.374970621637
100.37501976868
100.375074215331
100.375126018754
100.375153527288
100.375215928587
100.375257385942
100.37524960676
100.375351369462
100.375300607664
100.37532536434
100.375410239915
100.375349525722