/*--------------------------------*- C++ -*----------------------------------*\
| =========                 |                                                 |
| \\      /  F ield         | OpenFOAM: The Open Source CFD Toolbox           |
|  \\    /   O peration     | Version:  v1612+                                |
|   \\  /    A nd           | Web:      www.OpenFOAM.com                      |
|    \\/     M anipulation  |                                                 |
\*---------------------------------------------------------------------------*/
FoamFile
{
    version     2.0;
    format      ascii;
    class       volScalarField;
    location    "1.9";
    object      p;
}
// * * * * * * * * * * * * * * * * * * * * * * * * * * * * * * * * * * * * * //

dimensions      [0 2 -2 0 0 0 0];

internalField   nonuniform List<scalar> 
79587
(
100.071845472922
100.073789992911
100.070414344234
100.074761369767
100.081803023032
100.081918508148
100.079873919299
100.080398693902
100.080511669782
100.080885795525
100.081172979003
100.080985033598
100.082863240883
100.082551225444
100.08488895531
100.084846613438
100.081528649486
100.076881766154
100.075863709246
100.075860566976
100.076850690991
100.076567486289
100.075785851843
100.077330755587
100.083739909141
100.083638462367
100.077982056531
100.076313628122
100.07628722432
100.075470500337
100.07534353521
100.076411946463
100.076323859458
100.077939204036
100.083402478516
100.083306467531
100.077132269828
100.075747775283
100.07655747041
100.076628533069
100.075725389415
100.075730102337
100.076797567657
100.081362163279
100.084505372756
100.08436168906
100.077463297079
100.077011245901
100.074724940477
100.07401616206
100.074143774335
100.074011133411
100.073418357224
100.072096523751
100.073213562284
100.074530897693
100.074629475652
100.073722282821
100.072756153004
100.071531776051
100.071202065449
100.071792115398
100.071715794149
100.071040101726
100.071542095357
100.072737100673
100.073566910912
100.074652220394
100.074727828626
100.073312737684
100.072234584365
100.073588796119
100.074082072028
100.074186801546
100.073973480205
100.074678717196
100.077217363481
100.07793953499
100.075529977543
100.078431429463
100.081346614336
100.082698163189
100.080375788524
100.080185274585
100.081577746573
100.079859153806
100.077497836085
100.073267964687
100.078545071742
100.067314686056
100.056313042842
100.062082168073
100.06317874318
100.074122895318
100.069793578556
100.070422769234
100.072747214217
100.070871932075
100.069389870252
100.068804635591
100.07152471956
100.073341518741
100.069200719231
100.0684384516
100.070636788296
100.067375174837
100.066263395429
100.067494348992
100.067495652529
100.066308634409
100.067384380804
100.070577886152
100.068309488626
100.068744323953
100.073382799049
100.071958470423
100.069090125035
100.069530073878
100.070918160478
100.072738330113
100.070323773162
100.069630915501
100.074380571897
100.074405289173
100.071386644912
100.074498763095
100.080710082626
100.085398569581
100.078342618676
100.078286058731
100.08309158085
100.099034838128
100.068732444505
100.069253471801
100.053562974412
100.026577704405
100.027514981412
100.023341661224
100.023641961822
100.029930629081
100.061348637647
100.072555254669
100.068260822164
100.068001270884
100.074692975664
100.062912066711
100.063607859488
100.063440289876
100.063670166597
100.071426942497
100.066964095417
100.066946116271
100.071363464609
100.063687450909
100.063500496071
100.063636776041
100.062768305041
100.061471392227
100.063473857988
100.061432025891
100.021799675262
100.024217729265
100.025025434886
100.024662456047
100.024058802325
100.024147905546
100.02562299382
100.026239365348
100.030367753914
100.027616832714
100.028603482326
100.032113737503
100.032117646514
100.028646067237
100.027624647573
100.030170444649
100.029674421528
100.023068914782
100.023883716501
100.030453840245
100.031130606074
100.029729134797
100.029382100627
100.030657815583
100.030566140794
100.029751304638
100.030081072173
100.030330498108
100.025296989919
100.026117553527
100.027346171171
100.027301041754
100.026029529168
100.025127363132
100.026031454219
100.025364402731
100.029554001657
100.030895005388
100.031489522725
100.031645643412
100.031025439204
100.031130345213
100.031791745482
100.031675532391
100.031112309123
100.031307860849
100.031461274694
100.031464758105
100.030653884077
100.0303045972
100.030242581841
100.030498299323
100.030049586952
100.029850881795
100.031096759545
100.029364216307
100.029190623106
100.029376781016
100.029207084964
100.02949839091
100.029821170733
100.029702616694
100.029562989321
100.029351088761
100.029522697215
100.029506987575
100.0295050095
100.029385448138
100.031118581729
100.031071881445
100.031350018234
100.031250261576
100.02936288908
100.027040737591
100.027072475579
100.026961759648
100.027058318938
100.02699212382
100.026809239716
100.026833565138
100.027047849646
100.027101328978
100.027003461158
100.027153243198
100.027116630761
100.027184055862
100.027138092238
100.027115695454
100.029355880927
100.029470294805
100.027151117275
100.025229668541
100.02513065677
100.025156754927
100.025081774094
100.025176190701
100.025284392172
100.025387394487
100.025133190484
100.024904819851
100.025082830954
100.025010104394
100.025153685542
100.025135583416
100.02523741896
100.025216945701
100.025209054839
100.023503708406
100.023508145342
100.023398301034
100.023410778719
100.023334407952
100.023348703727
100.023232016589
100.0234944807
100.023370667414
100.023050629742
100.023276276989
100.023192917941
100.023342332463
100.02334393837
100.023481361348
100.02349571831
100.021698888467
100.021713679547
100.021677594321
100.021510848906
100.021491309614
100.021375909674
100.021343212562
100.021086999442
100.020745818901
100.020815601705
100.021140509784
100.021282302581
100.021237113712
100.021401861065
100.021427728674
100.021640306642
100.019445965032
100.019572740411
100.01957930735
100.019461521285
100.019201582955
100.019140285725
100.018942954134
100.018891695423
100.018819158304
100.018011092415
100.018065230775
100.018832779686
100.018821721605
100.018903120931
100.019081164374
100.019144348494
100.015869492079
100.016443645528
100.016711246527
100.016679027042
100.01635180156
100.015818020595
100.015970781859
100.015647188963
100.015301162445
100.015624309638
100.014170763666
100.01418894742
100.015638985321
100.015317485894
100.015774984537
100.016006929566
100.011436629879
100.010247787797
100.011482876808
100.012351966839
100.012236762447
100.011212271401
100.009941889491
100.01117442636
100.010845140258
100.009035667852
100.010718273543
100.007405394274
100.007435770967
100.010894582801
100.009307652878
100.01120138739
99.9999885847741
99.9995533592806
99.9940017502829
99.9961474049669
100.000051357968
99.9998466749579
99.9958891809026
99.9931726655355
99.9989290460326
99.999239662977
99.9920663850901
99.9967966638511
99.9925461538832
99.9926169708917
99.9971457121833
99.9930817349069
100.000442486491
100.008413489656
100.006584727285
99.9998589983199
100.00583827274
100.007584005573
100.007156461658
100.004911366171
99.9984449588654
100.005197256663
100.007142263461
99.9993734285951
99.9961147339712
100.028065295554
100.050985789741
100.050894513832
100.02834783799
99.9943839566012
99.9945606391577
100.087784469492
100.172657827724
100.110008126825
100.110453032957
100.096142150028
100.083957529542
100.072620042215
100.069310172866
100.06430798438
100.062986557301
100.074852240317
100.066919423675
100.06635409699
100.07326914071
100.060991933754
100.062247655463
100.067718805912
100.070981672947
100.082545999187
100.094694553237
100.187521939685
100.205635644488
100.206097601656
100.18868135891
100.190168660722
100.179826612622
100.203987459779
100.244605757203
100.156255542169
100.156581205411
100.207160785407
100.170800009733
100.195449384303
100.219728005367
100.160038890148
100.159192391578
100.2180673113
100.193273062452
100.167951949902
100.203774690444
100.152962791736
100.15295257847
100.201278710148
100.177996704213
100.188249368184
100.278424794596
100.324723477366
100.295805064032
100.295994217221
100.325811658437
100.298187255485
100.279991043965
100.403858254129
100.433623184027
100.387987372778
100.404706625672
100.405386457164
100.35748967607
100.300146192476
100.329664077432
100.277249335004
100.398824771307
100.432291478661
100.388364947559
100.389556335434
100.315502574839
100.316847895589
100.245513393663
100.293313759058
100.378787691744
100.424206207028
100.391145893358
100.396446776076
100.332175102839
100.284394901164
100.324794079289
100.3041840207
100.30812199305
100.331356569377
100.24221009278
100.241739525952
100.331049772645
100.30652402752
100.30171162868
100.321110072621
100.280373416321
100.32781424212
100.31282163813
100.311955992273
100.326934136408
100.298164735259
100.296716172471
100.355600331323
100.40387525117
100.387033151308
100.402665853455
100.433697620319
100.433733236145
100.403308761374
100.374512975597
100.374367981815
100.451287656482
100.47314152574
100.46474449688
100.46481600168
100.465396369967
100.453524936067
100.438100189432
100.47991687268
100.479457522769
100.476818414351
100.47194380348
100.466872330866
100.462451563309
100.447692163185
100.444997962048
100.446863968459
100.455522207761
100.426789618778
100.426128467081
100.427694512964
100.434662511936
100.455076492958
100.452774631372
100.433277033761
100.392211186624
100.399770468222
100.377987572073
100.410063702933
100.398146477359
100.397807584764
100.408730544277
100.375416510033
100.396494593606
100.388378776763
100.391863282303
100.386701402944
100.386132654694
100.385438986461
100.403417413793
100.443561682599
100.446704353499
100.452838453095
100.465562156122
100.476882147129
100.474340614707
100.481458490421
100.481571212225
100.47441158939
100.473714165225
100.473699451328
100.478540180326
100.474986627082
100.477456503643
100.477681103439
100.480227390675
100.475025225643
100.478096913833
100.478705572696
100.478133624601
100.47890300057
100.47998587997
100.477000364004
100.478921165431
100.477423199778
100.477117243363
100.474521167757
100.471280518555
100.467702470673
100.470168994381
100.460862404531
100.477716909775
100.477499482916
100.474619814388
100.47340707956
100.477602840527
100.472078049676
100.47044181624
100.474535727978
100.457152770742
100.458511328047
100.460604196152
100.474294263269
100.469201367295
100.467643677591
100.466084231192
100.449381261018
100.442368118969
100.44758846225
100.432842190526
100.432931076076
100.447128365778
100.441385451529
100.447178061382
100.429347029936
100.448692422424
100.45070826679
100.429896325869
100.423490968952
100.423178611883
100.424357295102
100.44518224936
100.459744539961
100.466822100287
100.46602358373
100.471654261677
100.477087319231
100.474639241159
100.480268715325
100.478532504913
100.478176507585
100.478792341842
100.479221517344
100.478625443747
100.478040216718
100.478224730526
100.478986633799
100.479961901914
100.478913190075
100.479090003589
100.479728751765
100.479230002461
100.478346001553
100.478911974731
100.478278021141
100.478255676383
100.478214477802
100.478027655452
100.478184179073
100.47912894359
100.479370127665
100.477530353977
100.478226219015
100.47808511724
100.476292217177
100.476166003237
100.474006410523
100.473658784978
100.475247794606
100.475757562001
100.474586179146
100.473942169558
100.47446506677
100.473240539714
100.47440916921
100.474513672557
100.47738915748
100.472304747949
100.471684493719
100.475245447264
100.474202788573
100.476348689196
100.471064707945
100.434060827219
100.429724840923
100.433783563161
100.445097567952
100.446978988257
100.436157515382
100.434522418573
100.431311711692
100.428677110093
100.424228914188
100.428732661684
100.420728822967
100.428600288751
100.446773257341
100.434646722592
100.439019385791
100.449644079204
100.471609987
100.470408914356
100.474659920637
100.463958258995
100.466798643476
100.468249069588
100.468953824608
100.459931079176
100.449450974266
100.446597816797
100.423606964402
100.43016486569
100.435844391765
100.434652047972
100.428039880808
100.422105530641
100.434859470965
100.424790388052
100.42268689947
100.436984935285
100.442178032184
100.428165021934
100.426374532651
100.448917409411
100.480254589337
100.480879484
100.468748713695
100.485225054948
100.468550616572
100.496482476803
100.478945641357
100.463816774817
100.467189719211
100.466312674404
100.469688136754
100.460985866617
100.46430559478
100.449146784826
100.430231075826
100.424879600809
100.430687948942
100.408883407095
100.416987003106
100.440453027561
100.43673065059
100.429655137285
100.424269102718
100.436311290062
100.427626557914
100.423993770261
100.433368120138
100.423017730634
100.425113688626
100.424476993601
100.427651589958
100.426153670878
100.448787459234
100.480012723028
100.480663862582
100.468224079289
100.484455050431
100.480598492459
100.436757053925
100.434871131448
100.435717004986
100.429710413612
100.43748388278
100.481410239737
100.480166915328
100.474837626538
100.488759185419
100.483092429354
100.463517417365
100.443203102639
100.46218502193
100.466106478207
100.4632670893
100.462836146779
100.463812483315
100.448673108931
100.429926760399
100.430395436309
100.430598420501
100.435753912497
100.436489067338
100.433373978803
100.437188814733
100.430227499785
100.422249039931
100.426766223374
100.438331789141
100.431921773405
100.443739202497
100.433830415333
100.432542610629
100.440515363719
100.428054779904
100.428973305572
100.423368077987
100.434751371439
100.43627308453
100.440957538537
100.438037946821
100.44884735922
100.470470246198
100.469563668788
100.473504347227
100.467297513354
100.494221097048
100.478825086069
100.428427391786
100.432697759286
100.433648738485
100.467401979062
100.466429371594
100.487476976948
100.483150215784
100.482321035451
100.464916588931
100.467923246843
100.459359750485
100.4448406381
100.422643315656
100.423916823499
100.429366424708
100.43567181445
100.436664441879
100.442190383562
100.442393912121
100.435250024951
100.436042729047
100.451587530594
100.445775967108
100.44960850098
100.449157179208
100.443111975909
100.439896955375
100.44005950037
100.43848374595
100.445844398044
100.448223917997
100.4407094277
100.442955450247
100.442846861897
100.434388214384
100.425016773196
100.423045206449
100.42604117982
100.434042698022
100.445396367737
100.465235612288
100.462396429775
100.461690306841
100.476623193604
100.480716354875
100.486105205585
100.472966674796
100.466297616584
100.465461748671
100.486270011002
100.460580726625
100.456193828943
100.463613102696
100.461298657851
100.454667320657
100.470165096004
100.470897394688
100.472632681875
100.47296838146
100.471566166573
100.470770807046
100.472111358929
100.474121328397
100.475402654203
100.475944413628
100.475740522906
100.475551059882
100.477173158247
100.478294362164
100.478109752109
100.477906564744
100.478153294072
100.484888238937
100.500984548585
100.534512552264
100.532942716739
100.476076797795
100.42960794174
100.382647723278
100.356064324474
100.375590306764
100.373523516567
100.371819074772
100.372346492539
100.373314486758
100.374242539379
100.375338647044
100.376735931442
100.378326851979
100.379893732121
100.381210322143
100.382111587741
100.38251216863
100.382564378343
100.382330789449
100.381775859612
100.380924786468
100.379824099547
100.378488640003
100.377022845766
100.37547175105
100.373853435968
100.372236160387
100.370746333682
100.369468141201
100.36845526537
100.36773073424
100.367295467758
100.367147259956
100.367271741686
100.367686475173
100.36842672625
100.369509115817
100.370848737987
100.372309811936
100.373374706677
100.373665665564
100.373552398552
100.373555922345
100.373624875923
100.373798205582
100.374042156924
100.374034465886
100.374162453212
100.374226504951
100.374509781046
100.374690026903
100.37488640202
100.375078500088
100.375070913318
100.375156403937
100.375016502731
100.374959922597
100.37487145741
100.374779349547
100.374675587503
100.374566865613
100.374408259476
100.374304716511
100.374143176713
100.37399541084
100.373838186897
100.373670562123
100.373458090854
100.373441026814
100.373375500432
100.373665669565
100.373818843368
100.373980755
100.374125808753
100.374295445687
100.374417070999
100.374556360324
100.374674051031
100.374784524651
100.374875465445
100.374980228482
100.375110893344
100.374942134674
100.374803502318
100.374545236225
100.374377546215
100.374097796515
100.374074643348
100.373954347901
100.37396528909
100.373691364368
100.373549270381
100.37335172631
100.373426568375
100.373587988862
100.37387196608
100.373875710418
100.373982059953
100.373990286494
100.374266256738
100.374446866604
100.374721670705
100.374851531807
100.374764576386
100.37463048848
100.37432166547
100.374140268496
100.373893610497
100.373890883293
100.373790618048
100.373748660508
100.373494133748
100.373376791879
100.373214452105
100.373257113219
100.373403899645
100.373627236266
100.373691213593
100.373787411991
100.373801385865
100.374029597286
100.374187118729
100.374507999565
100.374676471797
100.374560552772
100.374388032447
100.374055090046
100.373923279886
100.37371342093
100.373658585305
100.373591829019
100.373523897883
100.37332361393
100.373227614893
100.373114874533
100.373104526108
100.373238850454
100.373413022146
100.373469038592
100.373458160153
100.373733553807
100.373771858692
100.373954167124
100.374263007321
100.3744427814
100.374322527215
100.374128074129
100.373802117831
100.373600412032
100.373532894452
100.37334692173
100.373370556633
100.373312394615
100.373167522001
100.373097121244
100.373032126435
100.372963498494
100.373088310453
100.37320915818
100.373257864077
100.373256711556
100.373398419263
100.373458998941
100.373630601558
100.373962469524
100.374175217572
100.373993907536
100.373789916349
100.373450281878
100.373333170369
100.373332459809
100.373214871842
100.373174418864
100.373139139744
100.373115045412
100.37302110507
100.37297372211
100.372903915762
100.372836884572
100.372946710139
100.373031840031
100.373059436944
100.373103472878
100.373129260654
100.373263087227
100.373356629391
100.373660892701
100.373842654628
100.373687221478
100.37351097941
100.373207367184
100.373118367214
100.373031113949
100.373012053211
100.372971226222
100.372958948333
100.37288280112
100.372847415767
100.372764083646
100.372720621034
100.372811954607
100.372885008005
100.372879542735
100.37292923267
100.372955862207
100.373014841296
100.373058991508
100.37335670853
100.373534700428
100.373294502409
100.373175178077
100.372927975911
100.372932511119
100.372859781807
100.372832713426
100.372801961469
100.37281300712
100.372749615078
100.372731841385
100.372636460543
100.372606683985
100.372674323473
100.37271265773
100.372716518461
100.372753149941
100.372773422007
100.372815353321
100.372781862446
100.37303281574
100.373138264567
100.373172999499
100.373041039218
100.372966735051
100.372932548178
100.372791043151
100.372724736213
100.372722522125
100.372617593599
100.372686394233
100.372648135796
100.372621721429
100.372615795153
100.372591065756
100.37251644546
100.372422210819
100.372325112812
100.372217170915
100.372320864866
100.372463843931
100.372483613782
100.372528600042
100.372533726592
100.372555504966
100.372578857932
100.372607076343
100.372551556622
100.372672335368
100.372720376935
100.372910363046
100.372775388137
100.37276909317
100.372727391904
100.372562573681
100.372417044588
100.372451192859
100.372361936706
100.372599205081
100.372567599604
100.372547388034
100.372482992419
100.372492660443
100.372467543525
100.372457810865
100.37241454028
100.372454343742
100.372414241297
100.372389427332
100.372245931978
100.371910200658
100.37222368054
100.372377295821
100.372370765857
100.372404161975
100.372399618522
100.372389789967
100.372415615237
100.372460236875
100.372440025151
100.372506758729
100.37245932008
100.372305468512
100.372319515606
100.372243597014
100.372281483247
100.372164208591
100.372293085825
100.372424950314
100.37232333531
100.37237290823
100.372375110569
100.372368333027
100.372359584482
100.372360314495
100.372331243943
100.372316345271
100.372176465173
100.371791257622
100.372183196508
100.372304003908
100.372309293775
100.372316583235
100.372321055761
100.372326903658
100.372326429216
100.372303902416
100.372246520176
100.372337589953
100.372301275459
100.372321194139
100.372324030755
100.372497830144
100.372470292576
100.372556382264
100.372626415718
100.372698811288
100.372743954194
100.372788239622
100.372826804568
100.372874188028
100.372938971529
100.373030331533
100.37313077271
100.37322373479
100.37332555701
100.373447425626
100.373557026646
100.373674968965
100.373794760342
100.373917983705
100.374021655231
100.374261610316
100.374384574126
100.374691125181
100.37474831867
100.375002562926
100.375160555241
100.375133140736
100.37527663012
100.375142957523
100.375025163585
100.374992465544
100.374736643211
100.374598954402
100.374520965456
100.374366494911
100.374243797671
100.374129058067
100.374008779606
100.373859721568
100.373735807028
100.373615107721
100.373486552033
100.373322584475
100.373213552052
100.373092483442
100.373198418916
100.373182945643
100.373443828066
100.373614464468
100.373759780978
100.373857522376
100.373988213382
100.374154094821
100.374273624103
100.374377354465
100.374499746946
100.374635946467
100.3747293183
100.374814002318
100.37498271544
100.37515256936
100.375231378864
100.37510123984
100.374940565174
100.374617604158
100.374167278323
100.374292633758
100.374388359047
100.374747375642
100.375080952663
100.375242970513
100.375326198521
100.375229617652
100.375096047691
100.374900462301
100.374624240639
100.37424270075
100.374145833691
100.374049318811
100.373839259343
100.373676274548
100.373349060467
100.373146553884
100.372994429694
100.372836229228
100.372703788585
100.372524643345
100.372392114422
100.372254619902
100.372108950309
100.371951666288
100.372143625715
100.372434347792
100.372635825936
100.372733953936
100.372865294657
100.373013720916
100.373177884109
100.373285104367
100.373440069238
100.373579520497
100.373775856832
100.374135297027
100.374176636477
100.374367017196
100.37453306828
100.374860301143
100.374635596515
100.374586840052
100.374793472037
100.374645174999
100.374437935573
100.373876540891
100.37374440348
100.37387972511
100.374117763553
100.374119316514
100.374181274176
100.374322777766
100.374437506906
100.374545801575
100.37480071035
100.375132461656
100.375292187667
100.375363521057
100.375302032948
100.375157081449
100.374886137961
100.374625830747
100.374516354075
100.374289332386
100.373972976043
100.373563113419
100.373456455793
100.373275261691
100.373027939753
100.372819589643
100.372659414399
100.372483002902
100.37226713501
100.372064089911
100.371870480687
100.371746164719
100.371553645728
100.371379404395
100.371153180438
100.37098031023
100.370839461138
100.370748907343
100.370541850314
100.370360899536
100.370467540976
100.370868756125
100.371090172306
100.371210406814
100.371238948929
100.371364836893
100.371510570611
100.371702692516
100.371856220202
100.372045219185
100.372179951309
100.372354074683
100.372524212366
100.372767473151
100.373030885483
100.373188442175
100.37353674525
100.373585007537
100.373780664417
100.373569751332
100.373846433811
100.37411930178
100.374167758106
100.374184143619
100.373885743998
100.373978369737
100.373916994472
100.37394264902
100.374138355337
100.374316440536
100.374308088378
100.374478251238
100.374475317868
100.374629591089
100.37486256759
100.375197735432
100.375342273971
100.375417816219
100.375329652219
100.375313837489
100.375261238562
100.375047977287
100.374740748226
100.374393492657
100.374072625054
100.37367733677
100.373220565359
100.373030253368
100.37293540286
100.372728811234
100.372612389887
100.372457259922
100.372295152828
100.372144412655
100.372017129607
100.371767826186
100.371715695858
100.371502142734
100.371302969771
100.371146308961
100.370880722256
100.370637556416
100.370404014855
100.370241537518
100.370040573345
100.370248772624
100.370533568362
100.370781581711
100.371013032072
100.371253552524
100.371361922904
100.371545143448
100.371755703994
100.371948883523
100.372051019046
100.372235834092
100.372426942209
100.372657810642
100.372809653916
100.37305418695
100.373055537125
100.372820432598
100.37306284824
100.373209909174
100.373455466729
100.373380042883
100.373503170121
100.374615852096
100.374440610292
100.374374276262
100.373987273951
100.373956804699
100.374140914196
100.374177663133
100.374412061326
100.374386391767
100.374508149977
100.374540400634
100.374857182553
100.375060886043
100.37534290981
100.375503177633
100.375415679567
100.375458916908
100.375388777536
100.375306868596
100.37508416609
100.374824719141
100.374409455314
100.3741388168
100.373932441847
100.37372956405
100.373472884949
100.373175804509
100.372844028002
100.372831944753
100.372748689899
100.372608506622
100.372644756937
100.372451449075
100.372309464599
100.372212548199
100.372075893817
100.372206172299
100.371987642923
100.371772275702
100.371615612316
100.371427510785
100.371219522706
100.370935238942
100.370666785515
100.370406617885
100.370123498624
100.369790258128
100.36943559352
100.369089378979
100.368631434167
100.368906243853
100.369340211009
100.369727290621
100.369947630071
100.370177367152
100.37043442459
100.370694122132
100.370977522001
100.371151462783
100.371337646574
100.371551591616
100.371859501655
100.37205224809
100.372014254178
100.37205279121
100.372203151931
100.37235366103
100.372631102686
100.372717191363
100.372703137317
100.372575094574
100.372540184745
100.372586547761
100.37259144811
100.372576381286
100.373655294387
100.371002156756
100.369850625266
100.369269034881
100.368452199442
100.367797352707
100.36734307052
100.366947255784
100.366635169355
100.366277105047
100.365730973844
100.365084747452
100.362350804806
100.359970180515
100.364858548781
100.365188862352
100.365729541273
100.366657196433
100.367952807065
100.368806852773
100.369468716282
100.369977546529
100.370407612214
100.370797142166
100.371019440377
100.371343983971
100.371991870161
100.37075639035
100.372533978788
100.370042628443
100.37346941672
100.373343278761
100.373623781385
100.373651318432
100.373752281865
100.373852714777
100.37409774516
100.374088943867
100.373589705998
100.372705142362
100.371575877895
100.370019537637
100.36825529731
100.36702424321
100.36934223372
100.370453801935
100.367833643181
100.364771329188
100.362440566184
100.360534437804
100.351026979902
100.354894502189
100.353755352805
100.357502917619
100.3586518531
100.360645437319
100.363106395785
100.362109589486
100.359314848878
100.359481357749
100.358155747505
100.360150780546
100.361663082831
100.362210702401
100.362927940176
100.364099594422
100.363921482348
100.366804604823
100.368205475203
100.369515132894
100.371272866935
100.37209551252
100.372192388332
100.372272012254
100.372219501249
100.372717646733
100.372911677565
100.373084595388
100.373220593641
100.373343924142
100.373483994371
100.373677190573
100.373917231931
100.373824358068
100.373507263856
100.37385459899
100.373843676278
100.374004793567
100.374165397782
100.373952864468
100.374068436461
100.374297951858
100.374402649629
100.374381905458
100.374456285279
100.374738431374
100.37495685084
100.375244759053
100.375381182075
100.375475598117
100.37548895407
100.3753328846
100.375110420294
100.374774914562
100.374846630742
100.37497287218
100.375259958774
100.375396331826
100.375444466786
100.375437197164
100.375328136588
100.375151175465
100.375090759833
100.375025177583
100.374854051247
100.374596782361
100.374235942109
100.373780192228
100.373577631187
100.373386816896
100.373278684793
100.373079952492
100.372964259537
100.372773465482
100.372945710559
100.372838896952
100.372992390221
100.372924203063
100.372816091779
100.372649519581
100.372814550471
100.372656553081
100.37256671315
100.372427574157
100.372275547464
100.372096459551
100.371887744854
100.371987288811
100.371748510476
100.371531071369
100.371310155672
100.37106597708
100.370785571366
100.370499202025
100.37001393986
100.37026761726
100.370617238034
100.370887632418
100.371130548097
100.371371492929
100.371601204642
100.371838021487
100.371681406972
100.37173405163
100.371932721364
100.372121719423
100.372345434152
100.372467175905
100.37264546553
100.372481689567
100.372543147681
100.37273038215
100.372811267258
100.372765723916
100.372697727541
100.372528990475
100.372342029735
100.37203003171
100.372021670374
100.372083534323
100.372439844239
100.372686629804
100.373104923729
100.373442646792
100.373890504384
100.37417602555
100.37429738671
100.374092735532
100.374197758518
100.374307576756
100.374531687963
100.37449004464
100.374627074357
100.374702884602
100.37493594585
100.375285854043
100.375166514801
100.375291687401
100.375351975779
100.37525306088
100.375251862957
100.375194936369
100.374974652632
100.374723323686
100.374578801817
100.37431121761
100.373946355536
100.373680188031
100.373290310517
100.373192716
100.373054938084
100.373051894968
100.372989614577
100.373049765407
100.372954799595
100.373193695609
100.37305789094
100.373253546904
100.373148487876
100.3731224624
100.372937167509
100.373040458808
100.372905276551
100.372809329914
100.372719352811
100.372617547823
100.372413220485
100.372387698469
100.372210118734
100.37201959833
100.37180208468
100.371586923568
100.371362383869
100.37108744097
100.370790333297
100.370482924407
100.3701446666
100.369734329934
100.369364827996
100.369724469966
100.370124056465
100.370336518216
100.370657159837
100.370957626449
100.371225750331
100.37145901735
100.371697923892
100.371928271447
100.372193258688
100.372383009278
100.372269345644
100.37237715374
100.3725098646
100.372597495892
100.372731160081
100.372937527241
100.37282091464
100.372827624322
100.372910018821
100.373090019594
100.372957431037
100.372918216091
100.372661334718
100.372236159062
100.372054895441
100.371940259519