/*--------------------------------*- C++ -*----------------------------------*\
| =========                 |                                                 |
| \\      /  F ield         | OpenFOAM: The Open Source CFD Toolbox           |
|  \\    /   O peration     | Version:  v1612+                                |
|   \\  /    A nd           | Web:      www.OpenFOAM.com                      |
|    \\/     M anipulation  |                                                 |
\*---------------------------------------------------------------------------*/
FoamFile
{
    version     2.0;
    format      ascii;
    class       volScalarField;
    location    "0.2";
    object      p;
}
// * * * * * * * * * * * * * * * * * * * * * * * * * * * * * * * * * * * * * //

dimensions      [0 2 -2 0 0 0 0];

internalField   nonuniform List<scalar> 
79506
(
100.127204957109
100.12929038267
100.125522994941
100.130066363243
100.137021723443
100.137261520641
100.135321054202
100.135928022533
100.136317434936
100.136490957313
100.136885663916
100.136507463508
100.138187597222
100.137626707409
100.13975503465
100.139780717115
100.137719045708
100.134839046382
100.131627532143
100.131246502304
100.13134815365
100.133109900396
100.130696711892
100.131892302637
100.133834134518
100.138669266122
100.133271327799
100.132258997547
100.131503521412
100.131149061635
100.131242279843
100.131306999842
100.132135462852
100.13309428639
100.138579337281
100.133593977141
100.13161007735
100.130353127035
100.132733966853
100.130941024361
100.130877879192
100.131265785017
100.13449001771
100.137411972616
100.139363642311
100.139238092547
100.132590297601
100.131397554682
100.128009813499
100.128517489491
100.129046044335
100.128886251179
100.12897866255
100.128986376597
100.126744570924
100.129972509516
100.133663928121
100.132180679249
100.12879635239
100.127853980087
100.126829056639
100.127675099015
100.127758509923
100.127095950022
100.127976398065
100.128983762777
100.132486869136
100.133960154805
100.130238924446
100.127024630314
100.129323068705
100.129345447989
100.129194973681
100.129318529721
100.128686895815
100.128183392361
100.131709700199
100.132958845351
100.130544757391
100.133862300197
100.137037763493
100.138835008138
100.136849015634
100.136288605965
100.137358377669
100.135506781456
100.133024986024
100.12883439369
100.134286173121
100.122701692954
100.111486485326
100.117666176636
100.119281217185
100.128541767937
100.122698470918
100.123844877707
100.126566697745
100.125884685195
100.125387125239
100.125414931962
100.125382224376
100.129962153818
100.130765371793
100.126233091526
100.126594960269
100.124062180403
100.122876724209
100.12377129346
100.123783431883
100.122908432451
100.124172961507
100.126807652731
100.12651272359
100.131048564863
100.130258596003
100.125666969212
100.125774015014
100.125761080124
100.126203413501
100.126863772665
100.124035612789
100.122818225282
100.128989888892
100.129467749088
100.126021735919
100.129869687409
100.136389988596
100.141606222094
100.135052440036
100.134518493452
100.139068077661
100.154532523673
100.123418722371
100.123929408646
100.108899283881
100.082247487316
100.083103210188
100.078792582454
100.079500822861
100.085695206802
100.115924709996
100.126189613949
100.123293297932
100.123053591383
100.127203096468
100.133418636063
100.11669830795
100.117256457994
100.118675047019
100.128015022407
100.123068294781
100.123092452032
100.128133643436
100.118682745103
100.11738863294
100.116889343492
100.115477032659
100.116203402768
100.119732406804
100.117542695974
100.077625703502
100.079680773345
100.08097624655
100.080726727611
100.079651502347
100.07970293236
100.081602427886
100.082030822245
100.086142566712
100.11527678531
100.110423909405
100.094107936008
100.088328809519
100.088256661932
100.08557117678
100.086367483095
100.080868504518
100.08097507903
100.083118821339
100.086850967519
100.086760218313
100.082952631405
100.080815567807
100.086170668155
100.085387106114
100.07901597046
100.07962370032
100.086144228611
100.086601097209
100.085740522264
100.085435319764
100.086307944612
100.086175814384
100.085443277867
100.086675324508
100.086760037426
100.087249893373
100.087368035814
100.086670384789
100.08187432091
100.082680321474
100.08264984042
100.081835606856
100.080832033278
100.081781962885
100.081330070352
100.085259264216
100.086538824112
100.087169245768
100.087455879222
100.086761901993
100.086707573536
100.087423457036
100.08733686917
100.085201854406
100.084997889482
100.085087972947
100.085174417193
100.085247392403
100.085102018702
100.086929262165
100.086016354791
100.08600629799
100.086598194045
100.086150354457
100.085350846467
100.08656639796
100.084885608423
100.084793537272
100.08495169415
100.085052388275
100.084864325764
100.08491375473
100.085218158896
100.082784210159
100.082797434804
100.082744221587
100.082819543352
100.082802912743
100.082850134373
100.082780596775
100.082742853184
100.085059266636
100.086893065212
100.087222841704
100.08706482301
100.084996258463
100.082621166851
100.082605821769
100.08250400616
100.082549773897
100.082592002411
100.082569853113
100.082636046881
100.080746842811
100.080864293872
100.08088044755
100.080826818111
100.080887567644
100.080871810714
100.080894381096
100.08082470884
100.080790132017
100.080791188318
100.082745813659
100.085120372901
100.085527495964
100.082925710668
100.08092021423
100.080695806308
100.080674743995
100.080611978796
100.080674862253
100.080712498964
100.080681387307
100.078976365293
100.079046569447
100.079147482655
100.079154225008
100.079098113558
100.079157015316
100.079142534249
100.079152098233
100.079085338222
100.079054199053
100.079054560104
100.078979356231
100.078963537135
100.078927539168
100.078980969166
100.079001455788
100.077258566934
100.077228241763
100.077295567927
100.077390972396
100.077374979914
100.077329252417
100.077401135934
100.077386313289
100.077395191486
100.07734359507
100.077318722161
100.077315655895
100.077251165659
100.07724223674
100.077220609492
100.077255969836
100.075494628589
100.075559579749
100.075406888924
100.075389195392
100.075562927344
100.075535362936
100.075494305683
100.075584354473
100.075576394912
100.075594489147
100.075561595848
100.075546319626
100.075541037257
100.075484854644
100.075477555629
100.075462823511
100.07367934571
100.073667300775
100.073761124232
100.073440652487
100.073302089327
100.073562456933
100.073619992617
100.073633464667
100.073744766566
100.073751031613
100.073782674984
100.073772303881
100.073769923036
100.073766457059
100.073721484001
100.073706295725
100.071939030467
100.071877744489
100.071791506814
100.071745601063
100.071911940616
100.071796069967
100.071555850736
100.071714964255
100.071779078141
100.071904986692
100.071937013835
100.071989337138
100.072004384711
100.072016791531
100.072015166066
100.071971529698
100.070235612315
100.070171612952
100.070060293392
100.069934475677
100.069669789306
100.070067787971
100.070095994605
100.069688274868
100.069869551268
100.069934041681
100.070076940426
100.070142345511
100.070229763206
100.070277457587
100.070300654384
100.070294033724
100.068605015031
100.068509077183
100.068393579044
100.06820055939
100.068061327134
100.067711969079
100.067577536305
100.067687204731
100.067838714934
100.067976109589
100.068066587311
100.068255882592
100.068375857983
100.068518361633
100.068607812363
100.068636019737
100.067032238313
100.066938118766
100.066768513409
100.066568435071
100.066243748518
100.066033388627
100.065735446087
100.065340426011
100.065373783837
100.065703985539
100.06588575562
100.06612123695
100.066417006319
100.066615909589
100.066848647133
100.067006668019
100.065454636355
100.065469109777
100.06522032595
100.06493718619
100.064581600192
100.064047828697
100.063630506474
100.063287732264
100.062732215045
100.062673732143
100.063115935609
100.063474180056
100.063992999586
100.06445808809
100.064830190445
100.065163515353
100.063246466591
100.063798419396
100.063793046822
100.063224659393
100.062827020311
100.062160873813
100.061290077153
100.060569817657
100.060006134431
100.058920964465
100.058929315153
100.059975343476
100.060512527428
100.061346628435
100.062136510325
100.062816268966
100.060108545463
100.060627492759
100.061665134572
100.061625564004
100.060398561099
100.059973994551
100.058937278345
100.057400547473
100.055863214057
100.055065606586
100.053134575999
100.053209997551
100.055264971169
100.055997065946
100.057625778383
100.059070222091
100.05377524853
100.055070006703
100.055299143726
100.057927360566
100.057841973272
100.054999814118
100.05475323024
100.053452642584
100.050833146434
100.047324542312
100.046698147601
100.043624114797
100.043490870926
100.046785729811
100.047873850165
100.051222981897
100.041528539887
100.045438179572
100.046946002833
100.045852328656
100.051751781401
100.05155298803
100.045427215745
100.046184992044
100.044630967335
100.040859516617
100.034309058856
100.033744038839
100.029373787879
100.029100965374
100.033762453186
100.034807755676
100.057397438847
100.06143238994
100.066903026514
100.075903420956
100.069674637707
100.074177053963
100.073922267602
100.068748750416
100.074505364474
100.065338799096
100.059983796705
100.056513644865
100.043972396915
100.081644965222
100.102913580859
100.103580751222
100.082997819178
100.042731117636
100.042884290436
100.146010970528
100.231984446567
100.169553033161
100.169849493861
100.164800566722
100.154335594074
100.145146933282
100.19126971925
100.229483750804
100.138825170994
100.147742331662
100.209661151317
100.166193962428
100.16750938832
100.157932895501
100.157410072319
100.166198047376
100.164069081174
100.207322763593
100.145463817403
100.136827959886
100.189296995773
100.143951706339
100.152829568598
100.16389001872
100.255203577739
100.266952255033
100.267035117211
100.255537333114
100.265793264834
100.272636018946
100.285896369876
100.321497432536
100.335341844057
100.236712854096
100.27475493845
100.367887821396
100.310969998007
100.301972641207
100.293275366332
100.315350904027
100.260999104792
100.26043560068
100.31429279088
100.291780475473
100.299613513089
100.308358807235
100.332358882047
100.318874785461
100.28365272876
100.270892024487
100.264943029374
100.344528985502
100.381198712359
100.350639591272
100.350862291779
100.381908012994
100.367577586094
100.345337980096
100.439491537642
100.46531196343
100.435996351556
100.456880163247
100.462206367798
100.42029120232
100.371409286713
100.413246902633
100.361822474817
100.452674497672
100.47700284504
100.460042898193
100.471977387306
100.496270908256
100.458391275381
100.40070954322
100.422657588721
100.450316101339
100.406982691299
100.43121906946
100.43419231483
100.396655149217
100.432625159788
100.412016205206
100.344996801357
100.344627647687
100.41157880469
100.431265369684
100.395053113782
100.432203180857
100.429124399522
100.404264329858
100.446831400325
100.418893856552
100.397758413937
100.411378271768
100.36974993642
100.366173318704
100.419218159998
100.45616893241
100.435544976314
100.44816790492
100.472907241496
100.472943902184
100.448463757293
100.421863235498
100.421715986399
100.480809529324
100.502126364157
100.496897936451
100.496939918341
100.497426254906
100.490573200899
100.47667295709
100.50632657841
100.508825546815
100.506563011428
100.504095681065
100.501918328068
100.496723395065
100.487431884844
100.489426267782
100.494023049135
100.504521024165
100.488986596768
100.507538507925
100.505398684709
100.504418218996
100.503411696666
100.504459577751
100.505076368426
100.504977757696
100.505522983844
100.498535998491
100.480305252162
100.492610596835
100.497440844911
100.478501529991
100.478915715406
100.473480294912
100.480473573582
100.459329474499
100.459000864815
100.48013998448
100.472981840674
100.478186296691
100.477598223818
100.495250294359
100.490970700662
100.477140101339
100.456330219981
100.470791080467
100.458609214933
100.461394600615
100.48917541872
100.487253866863
100.490520656289
100.49745369254
100.506673054497
100.50717725932
100.514877072844
100.514994961515
100.507312937395
100.505951635528
100.505922389349
100.511815861339
100.509589883283
100.51071438599
100.510784933906
100.509843822833
100.50829617745
100.507158491933
100.511909001268
100.514306176055
100.513729467477
100.513366190771
100.511128653716
100.509917135258
100.508690027901
100.507897697237
100.504879787279
100.503479758277
100.501469251128
100.503949400486
100.497617742395
100.507288921072
100.505793993909
100.504415013886
100.503758716017
100.503278431275
100.50365427201
100.502443958625
100.500847195748
100.501931958343
100.501192305884
100.500869732228
100.501581093832
100.503440971405
100.504525495701
100.504903348964
100.506174569267
100.505227707407
100.505392206168
100.50457780308
100.507107308298
100.502821912401
100.504712033958
100.50391631737
100.49760206842
100.499039171603
100.495490351515
100.501250384869
100.500041002485
100.487259903252
100.487155917982
100.500056653441
100.501274541423
100.49535745099
100.499280935001
100.497892453958
100.503981844422
100.505411935087
100.502706728888
100.507820122601
100.505008823599
100.506094268634
100.50539627221
100.504780584936
100.493800258134
100.497574433741
100.501690944532
100.502079278854
100.504151489444
100.508856560032
100.508386650651
100.509959880531
100.513821717749
100.512402917845
100.514121603684
100.514175158353
100.512252626102
100.51150061732
100.511528435592
100.513152324611
100.514486864717
100.514789917094
100.51480865518
100.514938462237
100.516459688466
100.514722323353
100.513731163313
100.513892967485
100.514730476196
100.515582992868
100.515420747496
100.516668600715
100.515439582776
100.51527736212
100.513040546502
100.510081019489
100.511024844886
100.509137350544
100.511324608155
100.515644743192
100.513961002469
100.514046153281
100.513859052789
100.514195243541
100.513674591083
100.512040847419
100.509281004116
100.507178996952
100.508248251755
100.516807777438
100.533771015568
100.575917342835
100.586873426613
100.521678488031
100.47616720031
100.435953969504
100.38969793627
100.363204247004
100.380989518459
100.378281459534
100.376217550199
100.376472752727
100.377072002618
100.37770032556
100.378703768926
100.380241312593
100.38210496807
100.383926305997
100.385455309307
100.386590165645
100.387213030794
100.385935955377
100.384394733729
100.382624211212
100.380695771977
100.378772335674
100.377121308643
100.375933791725
100.375304413534
100.375221465912
100.375404833775
100.375527389107
100.375572793743
100.375642748859
100.375711290446
100.375725778727
100.375659295956
100.375520807
100.375300696904
100.375055439517
100.374825598974
100.374889945997
100.375270379027
100.375496375686
100.37555172788
100.375583478048
100.375630863754
100.375670756821
100.375732887994
100.375792015927
100.375819148462
100.375908105957
100.375921755402
100.376006607421
100.375998513556
100.375921466462
100.375814882585
100.375835023674
100.375932192534
100.375636175223
100.375526266226
100.375667530991
100.375653397353
100.375588412257
100.375756680522
100.375630761121
100.375746809736
100.375803346159
100.375780757581
100.375658123734
100.37569921505
100.375645693042
100.375593486626
100.375569932024
100.375506029282
100.375493583206
100.375420167817
100.37536152598
100.375108174282
100.374763588566
100.375158480465
100.375332615682
100.375381566747
100.37544028332
100.375494618156
100.375482017603
100.375573436047
100.375612878977
100.375626299509
100.375657975996
100.375699039032
100.375748641371
100.375724173317
100.375794501175
100.375843820825
100.375862162845
100.376017162709
100.376032774158
100.376035573678
100.376009445796
100.375785438391
100.37557826263
100.375596941691
100.375274132559
100.374640317111
100.373891464255
100.373839022281
100.374260127641
100.37448319581
100.375172494389
100.375044292242
100.374549698138
100.374459991565
100.374865023285
100.374927590437
100.375437303226
100.375463521547
100.375175818435
100.375451809709
100.375500080818
100.37561892443
100.375551786845
100.37551681876
100.375554656612
100.375530193662
100.375508351057
100.375560120466
100.37560335931
100.375632779675
100.375682002056
100.375745354524
100.375782567016
100.375854408818
100.375912424713
100.375978089599
100.376105073695
100.376159415313
100.37608758398
100.376106056738
100.376180078015
100.376269264463
100.376137914652
100.376081039256
100.375909362412
100.375964247288
100.375965999736
100.37603500348
100.37615450342
100.376240688217
100.376216361843
100.37617331499
100.375970170053
100.375591946312
100.37522226563
100.375224423639
100.375485853259
100.375551356611
100.375923588519
100.375794988398
100.375995553806
100.376017247482
100.375972792869
100.375837971987
100.375802868613
100.375848786093
100.375827117097
100.375910516114
100.375973669539
100.376020992729
100.37610123362
100.376236529876
100.37632901572
100.376285679571
100.376226014359
100.376042014382
100.375627877631
100.375253098043
100.374585735849
100.373969513192
100.373633987696
100.373737141935
100.373999869287
100.374007166093
100.373924441222
100.372844408483
100.372153273133
100.37174840671
100.371822237781
100.372132347071
100.371997656055
100.371998917138
100.372465003157
100.372904137973
100.37281446085
100.372713493021
100.372239876622
100.372532595484
100.37220890811
100.374040556507
100.375320621814
100.375392329923
100.375474483185
100.375504977475
100.375597896131
100.375664565785
100.375695454315
100.375743287112
100.375795404782
100.375855753742
100.375884024133
100.375933126294
100.376026147891
100.376067915966
100.376155232349
100.376292518578
100.37637668048
100.376319920484
100.376207220378
100.375969275814
100.375651073386
100.375257629412
100.374677680585
100.374126598287
100.373675636134
100.372949252704
100.372700432313
100.372446475589
100.372204335435
100.371985843715
100.371263875352
100.371146365431
100.370828126193
100.3704970463
100.370243016826
100.370716472835
100.370968975462
100.370581168235
100.370643990528
100.370905334333
100.370810558359
100.371005470733
100.372098463761
100.37385260344
100.375309902157
100.375443400736
100.375571128091
100.375590098163
100.375705637928
100.375776262776
100.375797928753
100.375848287866
100.375916253282
100.375988503347
100.375976840269
100.376074399319
100.376109841915
100.376205581644
100.37634979795
100.376417221083
100.376415584612
100.376159858744
100.376084193433
100.376200176634
100.376250522079
100.376344628112
100.376399556533
100.376314463362
100.376161188131
100.376187153501
100.376246147604
100.376400364297
100.376443162649
100.376449671307
100.376232928697
100.376048127762
100.37558436206
100.37531230633
100.375297130205
100.374766040341
100.374261351292
100.373820678239
100.373152329091
100.372943079016
100.37270599856
100.372592240857
100.372648844408
100.37234708554
100.372025264408
100.371574255172
100.371897377576
100.372329006504
100.372442595039
100.372071719516
100.371557535061
100.371624504822
100.371278007792
100.371468513194
100.371626972253
100.37133158672
100.370648393517
100.370979084137
100.370861854527
100.370260713005
100.370587764981
100.36980643866
100.369238274669
100.368695110347
100.368171884059
100.36869361984
100.36930159659
100.369746629089
100.369471311774
100.369348469908
100.369197452422
100.367879393984
100.367315088481
100.366456303905
100.365670656546
100.362975622515
100.363550744552
100.364862463929
100.366903903804
100.367622504329
100.36758987704
100.365339127976
100.365730038589
100.358592991076
100.357481352602
100.361799541531
100.360092636181
100.359398281289
100.356768611087
100.355539666512
100.354071895684
100.357147275795
100.360456616881
100.361644013998
100.363681056564
100.364255378816
100.366305282333
100.368262965906
100.369644357814
100.368436336985
100.368549833652
100.368687791431
100.372511480669
100.371557472973
100.37006753376
100.368805682903
100.366625211006
100.366542585227
100.367604938379
100.368714907872
100.364743693361
100.36231706053
100.362681557636
100.349007599434
100.353114739248
100.348327239037
100.354184571609
100.353866091392
100.368529973353
100.37210361158
100.374314473108
100.374680378671
100.375132892281
100.375170652594
100.375211223504
100.375267097965
100.375263113209
100.375335673769
100.3753919844
100.375422070244
100.375565700166
100.375577720984
100.375474023435
100.375315978124
100.375346945418
100.375579762173
100.37543421705
100.375558435624
100.375507143771
100.375350218631
100.375352230931
100.375315019125
100.375255898794
100.375235658053
100.375191180197
100.375145449325
100.375094416041
100.375016198447
100.374593512961
100.37417468602
100.374809610531
100.375031860351
100.37506622083
100.375123288006
100.375137101582
100.375196233451
100.375197220031
100.375246452663
100.375301493919
100.375321363973
100.375433217036
100.375415853621
100.375444343458
100.375536045416
100.375467042955
100.375401287815
100.375433074568
100.375507306701
100.375075118784
100.374787459646
100.375157770227
100.375100196624
100.375390350695
100.375295857183
100.37535322659
100.375336414816
100.375208604326
100.375245527398
100.375229039694
100.375230705888
100.375199820576
100.375130068432
100.375160592363
100.375158635964
100.375091437725
100.375047081533
100.37499592596
100.374798121464
100.374297373598
100.374931444945
100.374996058891
100.375047662656
100.375085915907
100.375135616731
100.375136378602
100.375185309616
100.37520991474
100.375191037879
100.375152062461
100.375283711294
100.375274741221
100.37518545193
100.374867957426
100.374246217981
100.374954780966
100.3748296768
100.375300558125
100.375133271838
100.375272966476
100.375264214699
100.375142982059
100.375139503999
100.375135863759
100.375158129017
100.375097703145
100.375107353773
100.375053059826
100.37504055042
100.374984208356
100.374930210735
100.374845172262
100.374335244503
100.373916804175
100.3746348436
100.374905021257
100.37494365094
100.375001744256
100.375039886648
100.375085719271
100.375074322878
100.37511992448
100.375109128277
100.375127023778
100.375122035183
100.375226218653
100.375222200796
100.375093997164
100.375297772915
100.375226473195
100.375119807493
100.375095473045
100.375235570192
100.375237210198
100.37518090563
100.374778191445
100.375293874677
100.375147693626
100.375343327434
100.375237766072
100.375225279709
100.375091501771
100.37511309425
100.375114243751
100.37510467106
100.375069067511
100.37507661189
100.375027674796
100.375013201835
100.374951664711
100.374914182247
100.374661349206
100.374138841952
100.374852634164
100.374945120922
100.37498498804
100.375019813529
100.375062767506
100.375046788207
100.375087839748
100.375086818065
100.375049848765
100.375054477371
100.375018210405
100.374992032175
100.374942855921
100.374890401348
100.374815097099
100.374271649072
100.374006206481
100.374647882793
100.374885982318
100.374918669431
100.374974021585
100.375008933256
100.375053596822
100.375039710908
100.375070147517
100.375099216482
100.375084583877
100.375230928251
100.375270801604
100.375291504251
100.374910202499
100.374409555722
100.374941411728
100.375311483367
100.375215925939
100.375355382253
100.375332739497
100.375240807391
100.375109829118
100.375120311862
100.375094234214
100.375060569688
100.375065007293
100.375013286147
100.375002208546
100.374946988047
100.374919070284
100.374711879597
100.374393296035
100.374910159865
100.374952785703
100.374993960048
100.375017464504
100.375066277957
100.375047344132
100.375081165839
100.375104962598
100.375095706679
100.375290985506
100.375372811294
100.375399675509
100.375069437613
100.375417422083
100.375357748216
100.375387564183
100.375395893718
100.375290435626
100.375143069212
100.375139192025
100.375129984636
100.37506943408
100.375079169935
100.375039941557
100.375029871274
100.374998833589
100.374940580936
100.374978314507
100.374525138807
100.374243706259
100.374909605376
100.375020029379
100.375021318129
100.37505391229
100.375065395914
100.375103261825
100.375071000332
100.375141401282
100.375138842657
100.375152646263
100.375294604203
100.375363137722
100.375372112262
100.375015427144
100.37531185986
100.375188675614
100.375304621812
100.375293379691
100.375278333228
100.375169569353
100.375142993261
100.375174220212
100.375156402226
100.375118441759
100.375102743571
100.375095307144
100.375122056128
100.375085504747
100.375064440467
100.375043084303
100.374994189618
100.374929505378
100.374434597632
100.374260876027
100.374836202486
100.375042248306
100.375063439894
100.375092654657
100.375114735268
100.375114043429
100.375144778228
100.375133173658
100.375183841431
100.375173599635
100.375174582003
100.37525972653
100.375262618437
100.375227764544
100.374748830441
100.375197768093
100.375263647012
100.375258862739
100.375176497972
100.375182044298
100.375281478731
100.375302783734
100.375297205939
100.374900803549
100.375327592863
100.375324756215
100.375405426815
100.375430252322
100.375346088475
100.37520948607
100.375231211298
100.375184814095
100.375173927706
100.375185103086
100.375147981715
100.375155543071
100.375182326668
100.375138959525
100.375147431155
100.375122112518
100.375117991848
100.374925863576
100.374702054493
100.375146714105
100.375160136955
100.375172358931
100.375167367999
100.375206211294
100.37518707384
100.375192036177
100.375207249438
100.375233320743
100.375269373386
100.375430746639
100.375594831576
100.375460043331
100.375488313586
100.375449952206
100.375272658981
100.375286447253
100.375231393653
100.375269695327
100.375223444586
100.375235144165
100.375215427933
100.375217383542
100.375217156148
100.375176339937
100.375245959818
100.374901342154
100.374873739623
100.3752236068
100.375217371426
100.375236911581
100.375256930963
100.375254314173
100.375278898316
100.375277488367
100.375303405747
100.375327487133
100.375319715245
100.375531569625
100.375611005051
100.375602197864
100.375301228413
100.375557198208
100.375566579373
100.375507468314
100.375322686455
100.375398641489
100.375595489467
100.375667511213
100.375704093967
100.375380645689
100.375569190764
100.375613591556
100.375557091171
100.375380869322
100.37538071946
100.375322624104
100.375372033713
100.375319251191
100.375303936353
100.375333819365
100.375308029843
100.375305750201
100.375307499046
100.375264014017
100.375359772557
100.375074337848
100.375096724607
100.375389961501
100.375375675381
100.375362287882
100.375369446282
100.375364504335
100.375397587414
100.375380540424
100.375446809969
100.375435293076
100.375483381592
100.375660620946
100.37571203919
100.375710623142
100.375372723139
100.375547300721
100.375627706026
100.375586652299
100.375442640728
100.375521610555
100.37563067533
100.375658457673
100.375663113211
100.375341829566
100.374797072586
100.375348525041
100.375615569874
100.375618997218
100.375645995304
100.375731294573
100.375671733088
100.375557940275
100.375528978976
100.375474061691
100.375438153356
100.375492851989
100.375417695769
100.375411687873
100.375461516417
100.375434654404
100.375436950875
100.375445852604
100.375411184142
100.375509023487
100.375250798602
100.375304524209
100.375550764106
100.375528606777
100.375514721965
100.375520533071
100.375514185596
100.375523841122
100.375502669272
100.375499261221
100.375529915433
100.375594929467
100.375593438387
100.375552721713
100.375610678315
100.375675424475
100.375623612481
100.375743394916
100.375811492789
100.375660600208
100.375735885943
100.375729623778
100.3758264785
100.375916858579
100.375827382941
100.375879441401
100.375860105778
100.375687267403
100.375681985769
100.375643370972
100.375568271636
100.375595682751
100.375546441629
100.375594374001
100.375586899355
100.375591685911
100.375603696651
100.375587206786
100.375658692187
100.375571607644
100.375624619434
100.375265777453
100.375077638682
100.374963766488
100.374767521015
100.374683399324
100.374506519162
100.374460699872
100.374249836122
100.374265818178
100.374072777941
100.374053348177
100.374000223527
100.373930437805
100.374020124362
100.373888681043
100.373901705274
100.374061568003
100.373926908729
100.374033622806
100.374257544339
100.374235029873
100.374357587569
100.374654081574
100.375103837937
100.375238155607
100.375287248461
100.375341832555
100.375394452637
100.375422963883
100.375488850278
100.375529828043
100.375523002229
100.375624399067
100.375572099574
100.375601878858
100.375682710278
100.375622667091
100.375529628615
100.375449938859
100.375593006172
100.375592510945
100.375596855879
100.375227903234
100.374953238153
100.37529840309
100.375045938344
100.374509321475
100.373845292589
100.373908089527
100.374449126857
100.374514306932
100.37518960394
100.375115480354
100.374636019459
100.373976343201
100.373143545045
100.371994484313
100.372971070223
100.373317442055
100.373433461225
100.374211301061
100.37430773289
100.374136748431
100.373808445908
100.374279313441
100.374862702595
100.374993609909
100.375122077985
100.37506838328
100.375157901697
100.375157728148
100.375168119146
100.375191043554
100.37520664041
100.375231473233
100.375244809084
100.375264642728
100.375332459579
100.375355250957
100.375415281836
100.375388961239
100.375405812412
100.37544605255
100.375482471564
100.375460142238
100.375537987661
100.37557799368
100.375602813899
100.375721826859
100.375750009183
100.375702169538
100.3757103533
100.375548286705
100.375615132298
100.375624670144
100.375696082909
100.375732279666
100.375637411835
100.37566406527
100.375720923336
100.375654522287
100.375705908364
100.375764194958
100.375822855847
100.375886569857
100.375909608615
100.375967977639
100.375998330167
100.376062559463
100.37610280792
100.376174311987
100.376249527549
100.376320375864
100.376464773409
100.376479830646
100.37648537006
100.376269018412
100.376101318183
100.375701484943
100.37525370697
100.375032327361
100.375159991676
100.374708337309
100.374338480159
100.373977953829
100.37333996357
100.373161499208
100.372942280373
100.37283530643
100.372904011082
100.372759820372
100.372993957169
100.372732421829
100.372361779783
100.371979310458
100.371752111099