/*--------------------------------*- C++ -*----------------------------------*\
| =========                 |                                                 |
| \\      /  F ield         | OpenFOAM: The Open Source CFD Toolbox           |
|  \\    /   O peration     | Version:  v1612+                                |
|   \\  /    A nd           | Web:      www.OpenFOAM.com                      |
|    \\/     M anipulation  |                                                 |
\*---------------------------------------------------------------------------*/
FoamFile
{
    version     2.0;
    format      ascii;
    class       volScalarField;
    location    "1.6";
    object      p;
}
// * * * * * * * * * * * * * * * * * * * * * * * * * * * * * * * * * * * * * //

dimensions      [0 2 -2 0 0 0 0];

internalField   nonuniform List<scalar> 
79506
(
100.120441544616
100.122526984304
100.118759590245
100.123302952993
100.130258311601
100.130498099908
100.128557622345
100.129164579897
100.129553982554
100.12972749161
100.130122182367
100.129743970757
100.131424088112
100.130863182331
100.132991496993
100.133017168412
100.130955485682
100.128075472047
100.124863943197
100.124482907811
100.124584553288
100.12634629727
100.123933107955
100.125128700432
100.127070534906
100.131905672622
100.126507743772
100.125495425796
100.124739963232
100.124385514218
100.124478745733
100.12454347846
100.125371958157
100.126330799241
100.131815865545
100.126830520136
100.124846633199
100.123589694805
100.125970545692
100.12417761285
100.124114475019
100.124502385115
100.127726619393
100.130648574401
100.132600242189
100.1324746876
100.12582689629
100.12463416054
100.12124642143
100.121754095607
100.122282648345
100.122122850867
100.122215253497
100.122222956374
100.119981139621
100.123209068362
100.126900476481
100.125417208944
100.122032862596
100.121090472262
100.120065536642
100.120911564351
100.12099496113
100.120332387669
100.121212825018
100.122220176922
100.125723272091
100.127196549797
100.123475318856
100.120261023647
100.1225594629
100.122581843915
100.122431376669
100.122554940768
100.121923318905
100.121419823825
100.124946145579
100.126195311198
100.123781237603
100.127098791887
100.130274273482
100.132071531545
100.130085548666
100.129525152988
100.130594933797
100.128743351266
100.126261567874
100.122070979562
100.127522747241
100.115938280213
100.104723097536
100.1109028231
100.112517888367
100.121778391323
100.115935087232
100.117081490329
100.119803309828
100.119121291741
100.118623724206
100.118651518962
100.118618799635
100.123198720482
100.124001932392
100.119469628051
100.119831469694
100.117298669811
100.116113202165
100.11700775636
100.117019880721
100.116144867802
100.117409383919
100.12004405592
100.119749112096
100.124284941171
100.123494976565
100.118903354377
100.119010398636
100.118997468853
100.119439809817
100.120100179623
100.117272029841
100.116054649825
100.122226322132
100.122704212532
100.119258217039
100.123106181843
100.129626501249
100.134842746832
100.128288974881
100.127755039396
100.132304636412
100.147769081134
100.116655291037
100.117165945048
100.102135811672
100.075484033797
100.07633985379
100.072029304051
100.072737583247
100.078931968794
100.109161389851
100.119426252843
100.116529925627
100.116290208157
100.120439702459
100.12665522134
100.109934898192
100.11049298113
100.111911507177
100.121251496984
100.116304752916
100.116328891546
100.121370068623
100.111919151315
100.110624998026
100.110125675328
100.108713347544
100.109439744029
100.112968804853
100.110779165012
100.070862149203
100.072917170377
100.074212842309
100.073963466844
100.072888378152
100.072939834785
100.074839350872
100.075267643941
100.079379264386
100.10851342989
100.103660509808
100.087344553637
100.08156551177
100.081493513216
100.078808227046
100.079604279583
100.074105210067
100.074211711241
100.07635534856
100.080087410681
100.079996584115
100.076188933001
100.074051810926
100.07940689933
100.078623380288
100.072252321147
100.07285994614
100.079380279978
100.079837417409
100.07897719532
100.078672256138
100.079545105562
100.079413071638
100.078680514016
100.079913063146
100.07999744834
100.080486809408
100.0806044566
100.079906958153
100.07511087086
100.075916727617
100.075886127444
100.075071788992
100.074068133442
100.075018024131
100.074566185517
100.078495109689
100.079774260682
100.080405022124
100.080692087729
100.07999867245
100.079944812218
100.080661050876
100.080574578811
100.078440541409
100.078236569102
100.078326178611
100.078412032888
100.078484212505
100.078338140147
100.080165575226
100.079252757144
100.079242426829
100.079834093688
100.079386101149
100.078586575744
100.079801612207
100.078119872663
100.07802819797
100.078186936396
100.078288403448
100.078101272549
100.078151517598
100.078456544007
100.076024005328
100.076037814659
100.075984573202
100.07605911422
100.076041574193
100.07608736691
100.07601646248
100.075977385196
100.078294636879
100.080128925467
100.080458345449
100.080300058016
100.07823058812
100.075853857134
100.075838401694
100.075737222399
100.075784044324
100.075827543335
100.075807159747
100.075874758004
100.073987154535
100.074106561268
100.07412375979
100.074070100885
100.074129634628
100.074112036845
100.074132188684
100.074060005572
100.074022975853
100.07402230861
100.075979023331
100.078355057404
100.078762401901
100.076159048556
100.07415166291
100.073925603213
100.07390435769
100.073842664285
100.073907302676
100.073947600218
100.073919054645
100.072214915787
100.072289741116
100.072394027079
100.072402638389
100.072346398109
100.072403248872
100.072385737872
100.072390936144
100.072319778345
100.072284116311
100.072281781957
100.072204066791
100.072187953718
100.072153772672
100.072210369953
100.072235452748
100.070490771649
100.070468348923
100.070543693393
100.070645365065
100.070631836796
100.070586025863
100.070654369269
100.070634771258
100.070636065989
100.070576823816
100.070543889701
100.070535623433
100.070466971749
100.070457671945
100.070439169275
100.070479729406
100.068709880927
100.068787288123
100.068649892032
100.068645409473
100.068830484725
100.068807639766
100.068766359448
100.06884978709
100.068833289637
100.068839163285
100.068792771572
100.068763684667
100.068748133753
100.068685560544
100.068677446503
100.068668038233
100.066861814266
100.066866487597
100.066981783231
100.066686964421
100.06657469204
100.066852831114
100.066919198533
100.066932286268
100.067033518927
100.067022919507
100.067034389656
100.06700013321
100.066973545118
100.066951506389
100.06689535621
100.066877801079
100.065060950017
100.065018101857
100.064964674484
100.064954893975
100.065167171915
100.065092994006
100.064885818036
100.065059762489
100.065123281907
100.065232599873
100.065235189658
100.065253504121
100.065227374036
100.065196102878
100.065161403387
100.065097204443
100.063277822521
100.063208443633
100.063127322376
100.063057936242
100.062863953065
100.06334436832
100.063443130693
100.063084173874
100.063291840858
100.063355119119
100.063469056546
100.063490881633
100.06351567917
100.063491979601
100.063439411607
100.06337211421
100.061564668865
100.061407089359
100.061283336737
100.061140769559
100.061101256303
100.060875471749
100.06087722315
100.061120594587
100.061355319348
100.061530764416
100.061619283361
100.06176194724
100.061807823083
100.061845264802
100.061809885329
100.061706385392
100.059989718554
100.059689647352
100.059417608245
100.059205238503
100.058963155022
100.058925222619
100.058846439077
100.058684740541
100.058943356415
100.059414641554
100.059657751656
100.059895476468
100.060114719815
100.060193011258
100.060250911579
100.060188553496
100.058601921905
100.05823026315
100.057623773809
100.057176321897
100.056781832749
100.056389828698
100.056285625544
100.056300761922
100.056173859845
100.056497582537
100.057143455549
100.057596436254
100.058138577506
100.058480012531
100.058626093812
100.058703331702
100.057035731666
100.056888316432
100.056184194125
100.055112286255
100.054368672196
100.053633556871
100.053019177014
100.052814955417
100.052863220471
100.052556525658
100.053162609545
100.054542415918
100.055218462035
100.056101859359
100.056700075905
100.056995357799
100.054895340341
100.054792918467
100.05480392174
100.053473262336
100.051398505741
100.050244144841
100.049129950162
100.048133853523
100.047483747553
100.047693346181
100.047118340722
100.048134942763
100.050735026584
100.051720682712
100.053329089446
100.054499363136
100.050527567168
100.051112929976
100.050298759285
100.051197444688
100.048868210155
100.044402241598
100.042542588435
100.041259003591
100.039594990213
100.037868661906
100.039044161243
100.038180522776
100.03951994207
100.043849114479
100.045349014078
100.048398552831
100.04104637184
100.044325596873
100.045045041067
100.042416602308
100.045375903395
100.041431861583
100.031818486075
100.02988020478
100.028603410552
100.026627186835
100.022877626112
100.025778875047
100.025171061264
100.027100558794
100.033517282746
100.034906135781
100.061289343647
100.06423557608
100.06832202602
100.077054290371
100.068508756878
100.068773313747
100.061886703316
100.051229233789
100.051941713523
100.043501208636
100.040705093459
100.042758225139
100.035693910455
100.077049341882
100.102522094568
100.106482810423
100.086963167607
100.043964081357
100.04013501415
100.144315104079
100.232063795854
100.171775779569
100.176355961197
100.172050997901
100.161114249769
100.152587504424
100.199613623195
100.237141521788
100.145760067093
100.154489120638
100.217077676948
100.17068861698
100.169204894044
100.154030856383
100.143890050248
100.144023211008
100.13398751172
100.172515427604
100.113872519095
100.110670756381
100.166223252187
100.127811738595
100.144610931345
100.16059048397
100.25422005865
100.273479740753
100.27772456385
100.265687313744
100.27595342325
100.282306686489
100.29567986685
100.329024839644
100.34258289496
100.244598360225
100.280632422937
100.373825491908
100.31913549713
100.309329831015
100.298013400928
100.317540851539
100.260271701579
100.247037378307
100.294042818594
100.263897853698
100.264320499639
100.267635860406
100.286299251723
100.282299500085
100.258057178192
100.253703328367
100.257680280591
100.341986632133
100.387193839395
100.362575995284
100.366274351961
100.396389400507
100.380129649071
100.3579522222
100.447764062358
100.474205695758
100.450020895991
100.466029876057
100.467631075998
100.430519469145
100.383598589113
100.419335565764
100.371912525765
100.458455719266
100.480989257348
100.464042230309
100.473811008674
100.493176306459
100.461460810967
100.408191097965
100.429433371353
100.455491994296
100.414133539207
100.437447853885
100.440586668632
100.404017024991
100.44100366147
100.418421391149
100.346501207974
100.336404512314
100.404251872804
100.413376782315
100.366688828406
100.3958106275
100.390804305825
100.358162778118
100.390299110156
100.362206377593
100.355484844962
100.380945754799
100.356450669378
100.355762814563
100.412712372864
100.457815541257
100.443557505162
100.456679205959
100.482475972734
100.482750915866
100.460883481362
100.436270265603
100.434387591122
100.490618874309
100.506082904284
100.50298832891
100.50487732453
100.503360230167
100.496197906332
100.487420971891
100.513126531066
100.513357578153
100.511052558006
100.510853026375
100.505486947237
100.502881106929
100.493947416919
100.492246515734
100.494840655552
100.50009814465
100.489066464783
100.505686416951
100.50452793946
100.501615147835
100.499751500992
100.500798627432
100.50095601619
100.500488024793
100.499828727777
100.494910419613
100.483058662091
100.491974075923
100.495893797639
100.480367262503
100.480202354963
100.481594964133
100.482759245223
100.464705824255
100.453003311501
100.468813420205
100.459265327135
100.448198809376
100.444181789061
100.445916764183
100.452900139154
100.424238552177
100.419713009368
100.444831218674
100.432417829108
100.4522845668
100.483304975406
100.489100414672
100.491650645386
100.504657502762
100.509114376193
100.50770587724
100.511512637202
100.513626667457
100.509853753548
100.509284728152
100.507518854759
100.510662794701
100.50865533344
100.509037470464
100.511409860026
100.515401803275
100.512020446782
100.514684988336
100.515960078603
100.515617874623
100.515145401494
100.516111042505
100.512848530713
100.516207788954
100.514554148524
100.513149081642
100.506726009424
100.507252595583
100.504933736269
100.501182593133
100.499077559267
100.50821640266
100.507719360372
100.503627856759
100.501611633153
100.501264755712
100.501727021198
100.500777923254
100.501219593604
100.50179795863
100.50144690741
100.50109483465
100.501004287146
100.50082618501
100.50042519934
100.500350638851
100.500297469266
100.500293191368
100.500015539288
100.498793664248
100.500814434981
100.497404049411
100.497781770678
100.498764870609
100.495959303008
100.494857397543
100.497213628697
100.498564702978
100.499039527672
100.487171876935
100.484611128943
100.498610478868
100.496997936635
100.483403192972
100.489155977118
100.487686449618
100.479179430559
100.485684982715
100.483850270212
100.477866315494
100.490550586562
100.486946205352
100.486944506542
100.487746947914
100.485146806695
100.49448176046
100.500205407129
100.500096132583
100.505976969416
100.506133586251
100.50565878219
100.508906445701
100.506242359338
100.506210297369
100.50771213043
100.511704168813
100.512005939459
100.5116968772
100.508902108168
100.508151902565
100.50571906908
100.50560559501
100.509488659304
100.512315374603
100.514818625704
100.514609117648
100.515235045976
100.513603033388
100.512059534392
100.509017949496
100.509465835079
100.511857329476
100.51031869179
100.511551948032
100.510844660406
100.509058640522
100.509547887523
100.511211015369
100.513915871202
100.515441551013
100.51401811736
100.511120464326
100.507662324288
100.502805986756
100.497232089353
100.493103290064
100.491651785499
100.492275487737
100.493960713754
100.499202607537
100.506308350626
100.529718546902
100.532968635973
100.487070852376
100.451982704079
100.41932730216
100.380979567936
100.359057886957
100.374483710307
100.371919878894
100.370460782377
100.370935202893
100.371682399625
100.372413804946
100.373388188178
100.374734299246
100.376344707858
100.378005787403
100.379495914165
100.380632384152
100.381280927952
100.380276355141
100.37908881724
100.377756365189
100.37629554772
100.374764170479
100.373281702432
100.371958963054
100.370813668185
100.369820653436
100.368951602842
100.368171689275
100.367465879434
100.366864025355
100.366465744847
100.366382385791
100.366701899976
100.367436711979
100.368550243253
100.369853737706
100.371104762148
100.371941131975
100.372259537151
100.372272128989
100.372353393076
100.372360335103
100.372378163235
100.372395461726
100.372420631568
100.372393272029
100.37242964035
100.372414078041
100.37249917714
100.372604223322
100.372578023438
100.372513662147
100.372383550347
100.372346712016
100.372508520922
100.372330563452
100.372337829722
100.372363452573
100.372255134744
100.372164568708
100.372313428458
100.372198540788
100.372300754756
100.372319318278
100.372359968097
100.372283358085
100.372322713107
100.372319653803
100.372302560476
100.372289103652
100.372253602357
100.37226813192
100.372187947289
100.372066949261
100.371981719546
100.371875512915
100.372004041339
100.372093584202
100.372150402575
100.37221575526
100.372201067111
100.372211832825
100.372252008162
100.372293108151
100.372310248213
100.372346154446
100.372390783781
100.372435452171
100.372466796634
100.372483172167
100.372490567892
100.372433330769
100.372645860443
100.372685533343
100.372710331852
100.372744372832
100.372718978822
100.37263240167
100.372535966482
100.372434198244
100.372103619674
100.3716657178
100.371477199345
100.371626538697
100.371818217291
100.372188649632
100.371927488853
100.371708654425
100.371529894246
100.371744421857
100.371746398174
100.372059473648
100.372125999519
100.372017826836
100.372107140514
100.372133688725
100.372259097842
100.372215241992
100.372246468123
100.372320039868
100.372252026634
100.372235790974
100.372292487715
100.372336885344
100.372433515115
100.372441582655
100.372512819447
100.372537273831
100.372539831708
100.372573805787
100.372591696549
100.372779658366
100.372837992024
100.372918377125
100.372989016446
100.372947273532
100.373081604153
100.372711526315
100.37262899044
100.372385982098
100.372417935005
100.372656782487
100.3726755004
100.372875241212
100.373000790964
100.373162928668
100.373190186764
100.373197171483
100.373045208729
100.372827179672
100.372702341431
100.372777045803
100.372844581983
100.372975686587
100.372864595899
100.37280112437
100.372604915005
100.372311718124
100.372204919724
100.37245928077
100.372465246554
100.372584190076
100.37260352432
100.372673368388
100.372731149086
100.372783306727
100.373047993812
100.37320340585
100.373348593859
100.373382302
100.373396717832
100.373167727221
100.372926918676
100.372489903708
100.371988190744
100.371524009689
100.371725311194
100.371903217589
100.371894967811
100.371734747067
100.37102752168
100.370404747376
100.369829226763
100.370047070577
100.370366184402
100.370224082415
100.370099544861
100.370349350245
100.370656223304
100.370818358262
100.370897512409
100.370643133288
100.370917125862
100.37062075359
100.371287945379
100.372227676408
100.372482294999
100.372363313033
100.372385396753
100.372414307444
100.37246384597
100.372501781667
100.372556061403
100.372560316206
100.372617696738
100.372654606769
100.372709956334
100.372707344421
100.372796443671
100.372904674864
100.373191265583
100.373357733668
100.373487723168
100.37348030873
100.37344621739
100.373272365691
100.373005801479
100.372597973681
100.372084841647
100.371515011929
100.370748877466
100.370340055205
100.37022363291
100.370065216851
100.369969113412
100.369178484906
100.368827984154
100.368676350967
100.368523223226
100.36848280235
100.368938911465
100.369050796082
100.368583312704
100.368913059735
100.369401916251
100.369470066539
100.369590310683
100.370718889001
100.371406032808
100.372184897401
100.372541526165
100.372514730915
100.372493529328
100.37251448531
100.372557071224
100.372596763706
100.3726438381
100.372684254174
100.372738059034
100.372739499388
100.372720054797
100.372854690613
100.373034720804
100.373324092994
100.373509787289
100.373677372782
100.373624089967
100.373637053005
100.37364978915
100.373779968645
100.373619738375
100.37342144062
100.373085386974
100.372751460319
100.372844725588
100.373198422416
100.3734664867
100.373659823688
100.373846758585
100.373806978173
100.373705727904
100.373423563907
100.373131000975
100.373094577956
100.372693610041
100.372195247471
100.371613816076
100.370844145956
100.370471387087
100.370057176875
100.369800522999
100.369720374985
100.369471612492
100.369212903935
100.368956285333
100.369269458157
100.369601551165
100.369890942717
100.369654005861
100.369304202441
100.369080408402
100.368620581875
100.368601341547
100.368765061897
100.368516043047
100.367990439602
100.36824226523
100.368368185678
100.367934740324
100.367958378553
100.367446061164
100.367037298695
100.366681189997
100.366489994582
100.366964103266
100.367343040053
100.367657162152
100.367222297348
100.367381928102
100.367600493093
100.367434052786
100.368111874451
100.36658921147
100.365110051788
100.364078057186
100.364163049204
100.364720007815
100.36562074293
100.367586135332
100.365405699636
100.364539717166
100.363738615285
100.360286945796
100.357568550742
100.362024943596
100.361230078674
100.361124380124
100.358909120768
100.360362585862
100.357557046614
100.359565366436
100.361109112544
100.361418858304
100.362488135674
100.363896321286
100.364991566145
100.366140993225
100.36697148261
100.366454621133
100.368323479892
100.365670233841
100.3724539993
100.371402884237
100.37001734978
100.368322154811
100.366679166479
100.365668488177
100.368006421245
100.369456872349
100.365150676637
100.362654521689
100.362012060647
100.352069941036
100.355416039744
100.352764243843
100.356060038162
100.357678976982
100.367873825635
100.369670554444
100.371403682927
100.371655601266
100.371849835591
100.371913909538
100.371958188209
100.371975925443
100.371992011219
100.372029399772
100.372078532027
100.372043183675
100.372165618579
100.372122475092
100.372027647142
100.371930070036
100.371918060728
100.37207066951
100.371966810685
100.372094528498
100.37210238754
100.371973767717
100.372029667732
100.372017083945
100.37198697179
100.371955382402
100.371941897233
100.371882112963
100.37176569472
100.371782011138
100.371275379043
100.370485535533
100.371498199408
100.371802353423
100.371784997112
100.371873863494
100.37188865657
100.371907319155
100.371923806826
100.371950592779
100.371976255531
100.371955738739
100.372014146727
100.371926747751
100.371965066125
100.372062484805
100.372076097904
100.372029190974
100.371959521495
100.371974824116
100.371552888369
100.371407018407
100.371692841945
100.371599899724
100.371892791346
100.371762593175
100.37188800921
100.371960200681
100.371901103019
100.371937848248
100.371962735423
100.371986050765
100.37194503718
100.371874553335
100.371906319221
100.371867978885
100.371854819139
100.371764403354
100.371750860413
100.371488422738
100.370627245421
100.37167939397
100.371755396301
100.371794468041
100.371861704649
100.371869282311
100.37190845608
100.371946447585
100.371939990576
100.371939378076
100.371904121986
100.371961279159
100.371858391321
100.371672766095
100.37131266283
100.370841710842
100.371416878688
100.37132993967
100.371822933753
100.3716097989
100.371868608965
100.371947475115
100.371919020475
100.371919305825
100.371973829958
100.3719256876
100.371865207166
100.371850068436
100.371837213872
100.371799292975
100.371751597111
100.371687191731
100.371575968773
100.370376283879
100.368789196587
100.37079385682
100.371690729245
100.371711280827
100.371776895172
100.371840605639
100.371843137742
100.37186301288
100.371934919564
100.371970154332
100.371930187901
100.371913345843
100.371916544783
100.371819219071
100.371618485565
100.371928178836
100.371956339789
100.371951635962
100.371941107885
100.371911495024
100.371774190383
100.371622437959
100.371068285467
100.371795219118
100.371636945428
100.371923362008
100.37186426338
100.371970396764
100.371989479807
100.371971684818
100.371900612905
100.371983280497
100.371864132191
100.371876114909
100.37182894079
100.371804346367
100.371732790261
100.371737680328
100.370952720093
100.369213337542
100.371391460077
100.371848678582
100.371811057038
100.371843418542
100.371915313085
100.371835888181
100.371995068294
100.372038572581
100.371881462336
100.371919354966
100.371861013989
100.37184509721
100.371811760265
100.371669345262
100.370976139642
100.369364036953
100.368243674871
100.370307987264
100.371433127412
100.371798850885
100.371888296572
100.371896237494
100.371989518809
100.371883945685
100.372080228378
100.371955492926
100.372051535942
100.37203342338
100.371925949869
100.37178762845
100.371255210684
100.370714888431
100.371347947103
100.371845315432
100.371885631482
100.37212345812
100.372056047239
100.372130938918
100.372147719579
100.372096213852
100.372180635669
100.371962576864
100.37202291128
100.371925083677
100.371934126723
100.371902538726
100.371703632991
100.370707171365
100.369345136985
100.371509209858
100.371991736466
100.372018855521
100.371996228049
100.372125274039
100.37196448441
100.372237289168
100.372092750711
100.372226519598
100.372247572559
100.372168617014
100.371966323075
100.371487275791
100.371988154684
100.372072589617
100.372258160952
100.372244105065
100.372313197585
100.372303436644
100.372219449567
100.372302234818
100.37205716022
100.372119959663
100.372044770759
100.372055189635
100.372014348854
100.371915836605
100.371419996223
100.369865092163
100.369102864653
100.371226274452
100.371933514019
100.372051467085
100.372107998426
100.372123552105
100.372180520494
100.372081522288
100.37231544511
100.372172266488
100.372334930586
100.372355722011
100.372278486473
100.372116004891
100.371527801904
100.372061797046
100.372131129939
100.372303323661
100.372313519533
100.372406032212
100.372272716859
100.372372985284
100.372389510348
100.372318552667
100.372210474051
100.372168111426
100.372156258372
100.372221307813
100.372148444986
100.372149494961
100.372077490391
100.371857620829
100.371213981635
100.369700191539
100.369351325285
100.371151787927
100.371898583006
100.372113732152
100.372190352433
100.372210740118
100.372198531223
100.372242892934
100.372212306148
100.372403006325
100.372321112167
100.372411118256
100.372449119929
100.372397754123
100.372205588091
100.371719273857
100.372154639915
100.372400486848
100.37244449824
100.372408149504
100.372466538421
100.372499777847
100.372468739916
100.372332329418
100.371830349614
100.372222340683
100.37233204743
100.372404735848
100.37250361048
100.372539444337
100.372383351739
100.372458727774
100.372315859872
100.372366803385
100.372448468597
100.372229030857
100.372271022453
100.372330796002
100.372268035447
100.372274743971
100.372273562379
100.372220499798
100.3716649022
100.371068095287
100.372304723997
100.372385107663
100.372354927611
100.372342469593
100.372385033945
100.372334335614
100.372355169918
100.372439580492
100.372482551812
100.372486908178
100.37254673399
100.372533130899
100.372270516545
100.372392889656
100.372503132614
100.372458924682
100.372458485166
100.372444580533
100.372528166745
100.372383327765
100.372417458199
100.372407423204
100.372428465787
100.372444944963
100.372428052722
100.372552500588
100.371691721293
100.37164508566
100.372561594979
100.372526006757
100.372500655549
100.372500764615
100.372483988484
100.372479627693
100.372450544237
100.372550699996
100.372474624494
100.372519415286
100.37257303161
100.372501203472
100.372291026882
100.371859699868
100.372263761848
100.372459218844
100.372532074406
100.372489951801
100.372565207496
100.372596515254
100.372525486974
100.372386528808
100.371933180002
100.372322329638
100.372526258309
100.372591478927
100.372544946445
100.372526758342
100.372548934587
100.372600665863
100.372504783022
100.372516270281
100.372531864466
100.372553750329
100.372560661614
100.372595662976
100.372528329108
100.372762390317
100.372031555479
100.372458791486
100.372814943687
100.372687818202
100.372649123478
100.372636502667
100.372634924955
100.372602327605
100.372596185594
100.372686162621
100.372598902145
100.372635449904
100.372691647196
100.372638470569
100.372509477384
100.372103005326
100.372430816261
100.372619535435
100.372658386476
100.37262185244
100.372671790955
100.372692659642
100.372685532792
100.372668572968
100.37234378891
100.371915215713
100.372439383165
100.372713879087
100.372761584618
100.372774213681
100.37284780339
100.372801520639
100.37271370467
100.372724524191
100.372686944222
100.372695686001
100.372723586432
100.372637586089
100.372648296184
100.372680322706
100.372748874736
100.372701472803
100.372759897484
100.37263392669
100.372890655219
100.372336866628
100.372946437087
100.372849314338
100.372888932308
100.372856706855
100.372848513347
100.372862118619
100.372780736045
100.372766792559
100.37275271282
100.372785672363
100.372768557166
100.372827368953
100.37285653745
100.372952366529
100.372916556641
100.372857768381
100.37298461553
100.373061947284
100.372972131695
100.373017967638
100.373025519959
100.373163400641
100.373299583156
100.373284659378
100.373353124367
100.373261691902
100.373012288131
100.372979346501
100.37302426467
100.372891098844
100.372926339351
100.372812531896
100.372895365243
100.372979583068
100.372947882471
100.373006709504
100.372928872114
100.37305082092
100.372864465131
100.373184715964
100.372861076803
100.371347496678
100.37183067886
100.370322095413
100.37084436182
100.369455858272
100.370061008289
100.368697721316
100.367835633818
100.368172708166
100.367432330951
100.368015898489
100.367341234175
100.36697726666
100.367653622183
100.367351708279
100.367254305541
100.36861441094
100.368715335203
100.368888948963
100.370416837362
100.370572723889
100.371665490825
100.371896054265
100.371990823368
100.372034617639
100.372094837123
100.372090164729
100.372136214524
100.372156272492
100.372186405796
100.37214197699
100.372217631489
100.372125703133
100.372149842634
100.372215153338
100.37221237236
100.37215701977
100.372080003936
100.372191787635
100.372124166486
100.372133727067
100.37184513385
100.371698659943
100.371921522507
100.371746009157
100.371375660865
100.370989511991
100.370980516251
100.371275852468
100.371311012486
100.371823698926
100.371702046168
100.371415298189
100.370922085584
100.370291189614
100.369604054561
100.370135339702
100.370375982129
100.370279756809
100.370843205413
100.370868415176
100.370921335267
100.37068183214
100.37098002669
100.371451763052
100.371598578419
100.371860774085
100.37184179845
100.371965559053
100.371965429916
100.37188459557
100.371894764146
100.371923297359
100.371945086776
100.371983170523
100.371998147391
100.372012603199
100.372057425314
100.372060332196
100.372087037724
100.372099340362
100.372140511038
100.372192412979
100.372185563562
100.372213193976
100.372244279302
100.372231818394
100.372317540692
100.372284056645
100.372212889405
100.37230057324
100.372170649955
100.372203653985
100.372201779133
100.372214586226
100.372182353747
100.372178430125
100.372424979992
100.372427692294
100.372381188585
100.372421085696
100.372469408181
100.372523397091
100.372575982401
100.372693708973
100.372750251425
100.37279692824
100.372841010866
100.372929102935
100.372987613459
100.373153295945
100.373414775959
100.37363152332
100.373828171971
100.373991835751
100.373936099382
100.373836369783
100.373569424075
100.373195430581
100.372883034411
100.373035824157
100.372646076758
100.372241172495
100.371703578072
100.370929767164
100.370591871335
100.370194417364
100.369967739983
100.369913385223
100.36974222365
100.370066510008
100.369812409984
100.369453893488
100.36909941496
100.368945441929
100.369521389581