/*--------------------------------*- C++ -*----------------------------------*\
| =========                 |                                                 |
| \\      /  F ield         | OpenFOAM: The Open Source CFD Toolbox           |
|  \\    /   O peration     | Version:  v1612+                                |
|   \\  /    A nd           | Web:      www.OpenFOAM.com                      |
|    \\/     M anipulation  |                                                 |
\*---------------------------------------------------------------------------*/
FoamFile
{
    version     2.0;
    format      ascii;
    class       volScalarField;
    location    "1";
    object      p;
}
// * * * * * * * * * * * * * * * * * * * * * * * * * * * * * * * * * * * * * //

dimensions      [0 2 -2 0 0 0 0];

internalField   nonuniform List<scalar> 
79506
(
100.125506712428
100.127592133017
100.123824749526
100.128368120142
100.135323481498
100.13556327858
100.133622812304
100.134229781696
100.134619195163
100.134792719302
100.13518742811
100.134809229418
100.136489366211
100.135928479451
100.138056809283
100.138082494192
100.136020825797
100.133140830519
100.129929320626
100.129548293091
100.129649947462
100.131411697092
100.128998511017
100.130194103591
100.132135936938
100.136971069246
100.131573130712
100.130560800035
100.129805322996
100.129450862194
100.129544078838
100.129608797034
100.130437257339
100.131396077763
100.136881125809
100.131895762347
100.129911859213
100.128654905456
100.131035741656
100.129242795731
100.129179647302
100.129567550795
100.132791780739
100.135713733238
100.137665401421
100.137539850938
100.130892054436
100.129699312948
100.12631157362
100.126819251581
100.127347808921
100.127188018511
100.127280433768
100.127288151478
100.125046349323
100.128274290881
100.131965712469
100.130482467885
100.127098144827
100.126155775725
100.125130854058
100.125976898433
100.126060310998
100.12539775249
100.126278201447
100.127285566603
100.130788672994
100.132261957848
100.128540725955
100.12532642993
100.127624865973
100.127647242206
100.127496764436
100.127620317453
100.126988679757
100.126485173587
100.130011477735
100.131260618189
100.128846527664
100.132164068486
100.135339528483
100.13713677116
100.135150777408
100.134590365357
100.135660136225
100.133808538874
100.131326742959
100.127136148789
100.13258792881
100.121003442995
100.109788223098
100.115967917352
100.117582961202
100.126843522364
100.121000229227
100.12214663848
100.124868460347
100.124186451363
100.123688894923
100.123716706101
100.123684001582
100.128263934046
100.129067154943
100.124534879954
100.124896754286
100.122363977229
100.121178522354
100.122073093793
100.122085233856
100.121210235688
100.122474766273
100.125109459296
100.124814529745
100.129350370436
100.12856039881
100.123968769359
100.124075813229
100.12406287485
100.124505204589
100.125165559796
100.122337396904
100.121120006377
100.127291665901
100.127769519233
100.124323504184
100.128171453874
100.13469175225
100.13990798396
100.133354200602
100.132820252277
100.137369834877
100.152834279308
100.121720473664
100.122231164519
100.107201033756
100.080549218959
100.081404931945
100.077094302299
100.077802546065
100.083996942786
100.114226461888
100.124491371712
100.121595060643
100.121355359321
100.125504868703
100.131720413227
100.115000088335
100.115558252945
100.116976854184
100.126316822984
100.121370097804
100.121394257196
100.126435449859
100.116984558547
100.115690446182
100.115191155183
100.113778837942
100.114505194238
100.118034183803
100.115844457389
100.075927454765
100.077982508703
100.079277945363
100.07902841136
100.077953181614
100.078004623746
100.079904139233
100.080332573004
100.0844443293
100.11357855251
100.108725681123
100.09240970922
100.086630572391
100.086558412436
100.083872908825
100.084669280775
100.079170286561
100.079276858947
100.081420623573
100.085152784152
100.085062043591
100.081254458853
100.079117395752
100.084472484129
100.083688899578
100.077317743286
100.077925469143
100.08444599244
100.084902799948
100.084042166487
100.083736933217
100.084609550311
100.084477431939
100.083744938292
100.084976904358
100.085061744458
100.085551712864
100.085669996033
100.084972239132
100.080176136274
100.080982162747
100.080951693944
100.08013746321
100.079133886193
100.080083800892
100.079631876225
100.08356108818
100.084840676086
100.08547100272
100.085757533762
100.085063462679
100.085009079332
100.085724944845
100.085638398198
100.08350320106
100.08329933134
100.083389618821
100.083476216916
100.083549361273
100.083404097357
100.085231215992
100.084318235164
100.084308206185
100.084900116679
100.084452274078
100.08365273109
100.084868357823
100.083187713779
100.083095452464
100.083253443005
100.08335395844
100.083165739818
100.083215074671
100.083519446551
100.081085156318
100.081098459399
100.081045428639
100.081121092166
100.081104696487
100.081152211589
100.081082894635
100.081045310007
100.083361431888
100.085195066924
100.085524861506
100.085366843473
100.083298452763
100.080923690008
100.080908171785
100.08080605392
100.080851513848
100.080893452927
100.080871004557
100.080937039579
100.07904727101
100.079164632288
100.079180919985
100.079127613902
100.079188934468
100.079173622207
100.079196684327
100.079127413922
100.07909311634
100.079094304721
100.081048366782
100.083422591551
100.083829612497
100.081228134939
100.079223063003
100.078998859803
100.0789775508
100.078914263333
100.078976613773
100.079013683451
100.078982125008
100.077276351518
100.077346011651
100.077446758732
100.07745374332
100.077398199713
100.077458038068
100.077444453444
100.077454784135
100.077388742701
100.077358103927
100.077358672781
100.077283397347
100.077267126047
100.077230236907
100.077282732972
100.077302222426
100.07555857491
100.075526914292
100.075593296317
100.07568844038
100.075672794111
100.07562815398
100.07570163588
100.075688313186
100.075698450076
100.075648176384
100.075624202946
100.075621456527
100.07555693973
100.075547196107
100.075524013845
100.075557841162
100.073796435601
100.07385856613
100.073703245084
100.073683933157
100.073857124386
100.073830266563
100.073791167256
100.073883933123
100.073878498281
100.073899077384
100.073868201518
100.073854552215
100.073849856168
100.073793657911
100.073784902859
100.073767432215
100.071985964812
100.071969420625
100.072058077612
100.07173313908
100.071591246636
100.071850925718
100.071909677572
100.071926917223
100.072042470898
100.072053863543
100.072089189697
100.072082462053
100.072082701954
100.072080488537
100.072035231753
100.072017986545
100.070258525515
100.070189047254
100.070093277207
100.070038740441
100.070197512328
100.070075689072
100.069834639567
100.069996636084
100.070066373145
100.070200425491
100.070239500062
100.070298776011
100.070320180226
100.070337560036
100.070338217183
100.070294440351
100.06857430118
100.068504576081
100.068379719681
100.068236488917
100.067956024747
100.068341281687
100.068359576463
100.06795073556
100.068136879984
100.068211397056
100.06836841496
100.068444826855
100.068544041344
100.068602240636
100.068634376583
100.068632133386
100.066969788718
100.066875147391
100.066750089062
100.06653472532
100.066365002048
100.065987175374
100.065828819813
100.065923217741
100.066072284474
100.06621903547
100.066327686916
100.066539782354
100.066680423368
100.066841169354
100.066948576004
100.066991190651
100.065422607212
100.065348187269
100.065182137302
100.064966503957
100.064604854478
100.064340336139
100.063991608625
100.063554196561
100.063559286024
100.063888811234
100.064087710915
100.064357284654
100.06468982742
100.064923551408
100.065183863182
100.065372247213
100.06386058494
100.063915580699
100.063707120195
100.063430662935
100.063053505047
100.06245508401
100.061944857659
100.06151542159
100.060879233521
100.06077493341
100.06121914576
100.061612371372
100.062186189929
100.062717601793
100.063142365844
100.063518133116
100.061635939205
100.062262273734
100.062329997733
100.061838688224
100.061458496739
100.060764744072
100.059779456155
100.058899418583
100.058182048588
100.056954406248
100.056889362019
100.057940247985
100.058542566305
100.059479258906
100.060380517385
100.061146788511
100.058481062993
100.059087953749
100.0601975506
100.060292290713
100.059209037576
100.058844833477
100.057760757688
100.056037283752
100.054210369888
100.053136309871
100.050961767335
100.05092614234
100.052991123565
100.053850654492
100.055675974767
100.057297529548
100.052004926296
100.053558298552
100.053831475148
100.056559290465
100.056700305197
100.054129206863
100.054127319964
100.052675277487
100.04971618568
100.04570635725
100.04459509041
100.041100158659
100.040770559318
100.044068208179
100.045399738241
100.049136755591
100.039310217471
100.043784446168
100.045620377817
100.044395987007
100.050527730317
100.050693137561
100.045059505762
100.046373963684
100.044619683876
100.040218879873
100.032692330289
100.031325887843
100.026197231182
100.025586170799
100.030292907053
100.031826637577
100.053741123047
100.059105905881
100.065554534519
100.074943112272
100.068310614301
100.072872029709
100.073350644832
100.068934148531
100.075887706346
100.066535495633
100.060220456397
100.055032341428
100.041102431228
100.077426087949
100.097439551748
100.097690011608
100.077495808738
100.03771970139
100.038409120703
100.141262893483
100.226441753696
100.16261097057
100.162224437045
100.157984417252
100.14876298568
100.141049748918
100.188189181472
100.228728468857
100.13677104707
100.147399780231
100.210119662194
100.166450623729
100.166100858755
100.156432916716
100.156801452658
100.167065472613
100.167321323648
100.211596405339
100.148948701171
100.138370130731
100.189986226868
100.142786293865
100.149698838825
100.158775950915
100.248580498451
100.257392576536
100.256637444473
100.247040313058
100.259277153665
100.267694990042
100.282735748704
100.321274706845
100.337157845686
100.237462807006
100.274557219511
100.367955384249
100.312317367338
100.30396567049
100.291559008506
100.312885102671
100.258595877994
100.259147819856
100.313854910646
100.292686718147
100.304313607895
100.313571921296
100.338506881707
100.32328353675
100.2849269154
100.269758536373
100.261129089037
100.338592503099
100.372997543076
100.339005292582
100.338323328215
100.371048302701
100.36021068609
100.336287838931
100.430188855798
100.455366183461
100.424793320776
100.449352345094
100.456972637543
100.413049107372
100.365259489029
100.410770813902
100.356867729593
100.448243906994
100.473288695059
100.457516590272
100.469583982096
100.493561677175
100.458373993797
100.401467017716
100.42609987786
100.457527977864
100.409067815621
100.429895296513
100.431287721599
100.392979107326
100.426957545285
100.406516293678
100.341153014084
100.342068181776
100.408733457042
100.429389597423
100.394601712326
100.431839364611
100.430979262414
100.409875614104
100.459254144102
100.427174500505
100.40385034563
100.413253877096
100.367643684195
100.362912118513
100.416006712668
100.452340385164
100.426962748599
100.437924434468
100.45950644794
100.459005355781
100.436359170503
100.408627439041
100.409440247916
100.469338229559
100.490961764656
100.483239877348
100.482598381392
100.485280488774
100.481254134131
100.464717727845
100.495670184553
100.49969375018
100.494346441231
100.495893444337
100.495016057044
100.488452063795
100.479277426625
100.483587349382
100.488963484087
100.499990111097
100.485777278922
100.503395483921
100.501193278273
100.499366103561
100.499347857371
100.500584400731
100.500710635051
100.500169938988
100.499696706393
100.494645329966
100.48357625426
100.491069336575
100.497549313046
100.473742358055
100.474983829059
100.466581907298
100.474784939842
100.453854793737
100.455748903542
100.476952908494
100.469987094327
100.475243224297
100.473690247306
100.496679491558
100.491895177523
100.483764634153
100.460466285898
100.471494368651
100.459882859193
100.459896671787
100.486042533289
100.482273223077
100.483728803979
100.486810689725
100.49601981354
100.497933270744
100.502536785006
100.502809066697
100.496511394002
100.490484746704
100.491161566781
100.503165276766
100.50837783409
100.50820451848
100.50777588492
100.506371301514
100.502887564081
100.500062472891
100.507265381796
100.508739784917
100.508348684474
100.507928830467
100.503760106767
100.502582709782
100.501027458301
100.500528712113
100.499221007593
100.497318660411
100.495078945221
100.499088450488
100.492518246811
100.501612356648
100.499960610405
100.498763798207
100.499145921594
100.49989898012
100.500651180445
100.49956262985
100.498164782147
100.499204634555
100.49819118272
100.498127692798
100.498861329057
100.500099592931
100.499621947162
100.499725308862
100.500367771863
100.499773322979
100.499211423834
100.49875585962
100.502122071456
100.497639390125
100.499163327566
100.498480845909
100.490742904369
100.492626304789
100.487257159487
100.494260701795
100.495362998529
100.483016414503
100.484173552723
100.497537678429
100.49980677208
100.492371898217
100.495300270843
100.49365380695
100.496324470694
100.495278789247
100.495833112667
100.500896981269
100.497827303964
100.500500566248
100.501053045303
100.500929429091
100.491029153791
100.495428801555
100.498392224633
100.498245928121
100.499657926992
100.505533714876
100.506511145679
100.508295283523
100.51030275857
100.509364117139
100.509019274009
100.507518565844
100.507022939496
100.506713481243
100.506477846559
100.509313191591
100.510893393055
100.510505102411
100.508710007468
100.511579445959
100.512548921971
100.508001812392
100.50798354623
100.507466315039
100.508650244237
100.505302796091
100.506894009483
100.509585349287
100.506914987279
100.507654052507
100.502194229792
100.499454075643
100.499266313458
100.500614077524
100.502037697669
100.507911059997
100.504147566786
100.50471914268
100.504877011888
100.50492192666
100.505056629857
100.506406217274
100.50874264464
100.51212811913
100.51709288294
100.528446013252
100.547184841528
100.587510219303
100.595778780617
100.526480272707
100.477111063492
100.433963316452
100.384784824994
100.356733680751
100.375526156492
100.372974509308
100.370831565834
100.371249887926
100.372182960357
100.373088559584
100.374236884363
100.375820837285
100.377726297813
100.379687846082
100.381425420621
100.38273080813
100.383437952638
100.382171328262
100.380643596331
100.378924798396
100.377089726022
100.375247993859
100.373545411628
100.372082127145
100.370860268029
100.369834020551
100.368962678314
100.368219945079
100.367586878609
100.367084443825
100.366791438645
100.366812794688
100.367268349089
100.368204708807
100.369526689608
100.370954024458
100.372180960858
100.372692060115
100.372716404656
100.372807984635
100.37291797238
100.372969864997
100.372996422088
100.373060589589
100.373110215573
100.373137796418
100.373228388191
100.373270135616
100.373414465311
100.373521424638
100.373475331674
100.373348182034
100.373212947832
100.373253237519
100.373458496343
100.373290734923
100.373288917586
100.373336158496
100.373216655995
100.373126095204
100.373258106731
100.373121469699
100.373242793634
100.373211398434
100.373180995313
100.372999273662
100.373047327629
100.372997017221
100.372966925936
100.372899185529
100.372857549532
100.372843520385
100.372731621882
100.372558891069
100.372496027153
100.372607690357
100.372504863866
100.3726055694
100.372685412
100.372802606419
100.372787698627
100.372833149259
100.372888577323
100.372979932581
100.372976006846
100.373000445776
100.373040175466
100.373087233775
100.373133164521
100.373180886938
100.373250192981
100.373219851339
100.37349932372
100.373591794441
100.373630896234
100.373694937152
100.373637038474
100.373520398051
100.373452845707
100.373317025262
100.372888036742
100.372334778342
100.372203915292
100.37244307514
100.372650513861
100.373113054297
100.372898202927
100.372609127156
100.372445877421
100.372711044086
100.372714694346
100.373060767735
100.373127057546
100.372973752828
100.373061318009
100.373018501798
100.373008193211
100.37284504901
100.372822961603
100.372910447747
100.372848624371
100.372837020374
100.372896608501
100.372953953139
100.373048716844
100.373063698033
100.37313993021
100.373207760173
100.373239816868
100.373331945132
100.373387383106
100.373646569696
100.373745311339
100.373844321267
100.373907346157
100.373892495076
100.374034632392
100.373638393485
100.373506736852
100.373159169144
100.373204682131
100.373413511247
100.373478294482
100.373743755238
100.373903855562
100.374061882505
100.374083243567
100.374056675044
100.373835755123
100.373556510178
100.373466523682
100.373611339669
100.373677693326
100.373873235318
100.373771619176
100.373741337388
100.373551326822
100.373190577325
100.372954775272
100.373116972692
100.373124398836
100.373257056448
100.373305940604
100.37337448886
100.373492449123
100.37359189592
100.373910711565
100.374097176302
100.37422600185
100.374253060052
100.374235413576
100.373937546675
100.373633186853
100.373089065949
100.372519601771
100.371991577279
100.372230047109
100.372465100222
100.37248703689
100.372360893903
100.371521313272
100.370820054902
100.370195551271
100.370446245861
100.370811649092
100.370707438954
100.370654881867
100.371010291412
100.371360115049
100.37142989307
100.37142394053
100.371091660086
100.371472216486
100.371180170044
100.372027660614
100.372786554287
100.372967054249
100.372907899251
100.372900724875
100.37297362878
100.373021202871
100.373123069216
100.373183114745
100.373193289997
100.373256775786
100.373333545959
100.37339664829
100.373412676949
100.373559227079
100.373713189048
100.374044350261
100.374236898167
100.374347904167
100.374323787762
100.374253835799
100.374008476997
100.373676093737
100.373171970785
100.372601650259
100.371971953944
100.371158189263
100.370743155974
100.370609951791
100.370448397608
100.370348894309
100.369520809406
100.369168410618
100.368984468275
100.368819850617
100.368765861126
100.369246485176
100.369361361648
100.368860041163
100.369193950394
100.369720537306
100.369781868429
100.369895303273
100.371175755646
100.372076956168
100.37276194758
100.373023794871
100.373045256548
100.373004788293
100.37307341116
100.373125470279
100.373226783127
100.373276434059
100.373331167275
100.373389761891
100.373437066467
100.37343310345
100.373614234276
100.373833901637
100.374171458419
100.37436693025
100.374522144118
100.374434475185
100.374404097778
100.374460517322
100.374565348846
100.374467595507
100.374300958247
100.373951824464
100.373563445848
100.373641054461
100.373980693222
100.374299787276
100.374486775852
100.374658350514
100.374572063743
100.374433455527
100.374071494185
100.373742691866
100.373735312995
100.373241028565
100.372695056501
100.372069186067
100.37126639696
100.370889593844
100.370495536429
100.370254222917
100.370197784148
100.369929888414
100.369652007638
100.369353805541
100.369676712105
100.370033553047
100.370306858628
100.370045595707
100.369663954168
100.36947065468
100.3690254151
100.369052205194
100.369236103894
100.368969390718
100.368401595287
100.368652437493
100.368728201914
100.368247370985
100.368348642356
100.367763922954
100.367322994044
100.366932046869
100.366695808949
100.367191281146
100.367604858734
100.367932372125
100.367506713756
100.367593351862
100.367811923571
100.36736976694
100.368028444692
100.366502631049
100.364937078704
100.363555942553
100.363592226357
100.364313891515
100.365421191856
100.367620635665
100.36504971803
100.364112825556
100.363144249947
100.359242295064
100.355924152039
100.361303274568
100.360287385846
100.360527096516
100.357887437561
100.359059149166
100.356116490861
100.358383677235
100.360297512891
100.360690286074
100.362015528559
100.363619290808
100.364829207229
100.36620526872
100.36718788865
100.366466819425
100.368411120813
100.365485654798
100.372678070833
100.371689640773
100.370295423948
100.368604035697
100.366646835188
100.36586731096
100.368918501183
100.37053907013
100.365354783138
100.362346819853
100.361325497457
100.349199125112
100.353728158948
100.350328382417
100.354384002889
100.356150247872
100.368449357737
100.370444595831
100.372183411332
100.372405285161
100.372318434669
100.372454028171
100.372507424038
100.372530986677
100.372568468544
100.372610373082
100.372721983076
100.372689290153
100.372956384203
100.373010700539
100.372981616844
100.372916580777
100.37289505267
100.372987325897
100.372888469155
100.372961243907
100.37287124491
100.372632602503
100.372672288821
100.372612884456
100.372564330949
100.372517110049
100.372501257011
100.372424196488
100.37227619994
100.372285417703
100.371989314072
100.371653391132
100.372156768429
100.372309424626
100.372324628409
100.372418123184
100.372445464238
100.372463900265
100.372494602661
100.372543222608
100.372599553161
100.372623338433
100.372736319736
100.372746808568
100.372820534124
100.372852943672
100.372789795596
100.372727957027
100.372718181212
100.372823748925
100.372405376708
100.372261114695
100.372502697437
100.372365757162
100.372657726494
100.372544018072
100.372616085404
100.372641128005
100.372529280706
100.372557471327
100.372565877434
100.372558356151
100.372513216755
100.372445506692
100.372459696495
100.37240609174
100.372421055877
100.372308419368
100.372284182871
100.372087006892
100.371664332583
100.372235104211
100.372299499408
100.37234790974
100.372433451473
100.37242499783
100.372483306542
100.372522617981
100.37254295809
100.372538603445
100.37249628772
100.372608792547
100.372536134838
100.3723974301
100.372049313425
100.371499854773
100.372208987917
100.372020969702
100.372613490682
100.372356314014
100.372562940631
100.372602117427
100.372504410393
100.372510980368
100.372537056113
100.372500738608
100.372442668491
100.372398133093
100.372411873732
100.372349033999
100.37229686629
100.372175382495
100.372221507943
100.371382116425
100.37025010041
100.371774598509
100.372223082959
100.372220377552
100.372310595291
100.372396285431
100.372372784347
100.372432616462
100.372487848137
100.372507408547
100.372514185864
100.372495753196
100.372578392221
100.37254381681
100.372319712394
100.372632892314
100.372592934878
100.372522997079
100.372491674779
100.372583798157
100.372505669131
100.372435390458
100.371913663047
100.372567131315
100.372450485991
100.372701161442
100.37261298665
100.372620914502
100.372527771503
100.372526147915
100.372486321647
100.372529794144
100.37242786744
100.372369214132
100.372377213802
100.372301842672
100.372189565685
100.372165064874
100.371753263766
100.370893434625
100.372051073025
100.372183987106
100.372234147378
100.372346757591
100.372337798994
100.372375555762
100.372482544677
100.372509713503
100.372399261216
100.372321506126
100.372357916476
100.372226263533
100.372189461058
100.372051227789
100.372078675873
100.370918927203
100.369913715569
100.371656501427
100.372157403026
100.372137010168
100.372229798779
100.372317013326
100.372332959291
100.372357891881
100.372477805629
100.372487715956
100.37254674995
100.372681571093
100.37270779644
100.37269412968
100.372251337488
100.371807648888
100.372377480703
100.37278983276
100.372730205748
100.372895085183
100.37281914728
100.372731454108
100.372603285468
100.372571360881
100.372543194566
100.372409079563
100.372333012772
100.372344083521
100.372245339044
100.372182006679
100.372183449258
100.371743827525
100.370993778974
100.372164107209
100.372244746672
100.372263541402
100.372344140253
100.372357299138
100.372361887076
100.37252741493
100.372523322312
100.372621067938
100.37284096065
100.372963815148
100.372930236312
100.372582579281
100.373023362515
100.373044349572
100.373125348672
100.373086284157
100.372919790922
100.372721772507
100.372637536479
100.372614473933
100.37244670619
100.372360104861
100.372398538586
100.372279765944
100.372281219761
100.372162780143
100.372297508522
100.371254801431
100.370549695589
100.372175131386
100.372365209487
100.37230199933
100.372339523119
100.372443069805
100.372410238638
100.372430451378
100.372626395038
100.372621238746
100.372761202952
100.373004473246
100.373195047551
100.373222297859
100.37284197431
100.373176157509
100.373184614389
100.37314267733
100.373212488195
100.373079799029
100.372781599388
100.372755304474
100.372815047187
100.37269556763
100.372567051291
100.372464545525
100.37239592555
100.372468725052
100.372445348582
100.372395676894
100.372386606624
100.372370430189
100.3722181224
100.370984322379
100.370610695647
100.372113186202
100.372514108088
100.372475404525
100.372480291479
100.372486876646
100.37252265326
100.372540979778
100.372567320543
100.372762456117
100.372724675947
100.372832013978
100.373008853301
100.373146159151
100.37312895231
100.372738147294
100.372944276111
100.373023328487
100.372946953347
100.372768440527
100.372819315423
100.372954490256
100.373043491059
100.372978125841
100.372579165172
100.37280374159
100.37281349189
100.372831660981
100.372963724937
100.372941929822
100.372731320786
100.372747792701
100.37270167339
100.372649486297
100.372768048953
100.372577357616
100.372525105857
100.37262964431
100.37259003822
100.372579468427
100.37256361535
100.372607299144
100.372319604736
100.372160294732
100.372685501013
100.372649237183
100.37265929761
100.372650297024
100.37266806455
100.372661881672
100.372669353775
100.372736456983
100.372796386072
100.372766296804
100.372844806528
100.372843211784
100.372579188422
100.372737743567
100.372789791677
100.372723937683
100.372737993766
100.372716470876
100.372800972126
100.372676723148
100.372704982481
100.372700320892
100.372713107616
100.372744657639
100.372668030462
100.372854191102
100.372281731152
100.372561261
100.372824706535
100.372779756664
100.372775086526
100.372766664621
100.372745878791
100.372756039227
100.37272253423
100.372803720705
100.372742222484
100.372775612706
100.372830977605
100.372763247878
100.372628427902
100.372187645027
100.372546876043
100.372710113343
100.372779022604
100.372719641269
100.37278221444
100.372816787225
100.372731944755
100.372636123594
100.372195445266
100.372509170158
100.372679836208
100.372768851754
100.372741496016
100.372757488382
100.372768468066
100.37281979312
100.372753925828
100.372759144853
100.372787327521
100.372791232775
100.372796549225
100.372852447652
100.372744297825
100.372966019417
100.372441336819
100.373010427174
100.372915808122
100.372921140586
100.372877286831
100.372866917719
100.372838826805
100.372831238454
100.372817471012
100.372851436662
100.372784409382
100.372805203496
100.372849469254
100.372770868547
100.372696983874
100.37225523444
100.37254860834
100.37270359961
100.372770806172
100.372775991612
100.372792871075
100.372774246505
100.372737729659
100.372773909636
100.372530940295
100.372202204165
100.372609626398
100.372785642387
100.372824742287
100.372811499112
100.372912109446
100.372868658294
100.372783765008
100.372814750317
100.372831724098
100.372844469569
100.37284100895
100.372813421473
100.372842410517
100.372879620647
100.372922502302
100.372903605079
100.372961228504
100.372867771253
100.373054516357
100.372588314421
100.373185810825
100.373019049035
100.37312588648
100.3730524441
100.373021849664
100.37300707432
100.372946202892
100.372894022496
100.372887791912
100.372891199832
100.372823504848
100.372867283442
100.372950448266
100.373022715764
100.372941209373
100.372893962065
100.373022958744
100.373118178191
100.373029127484
100.373047121113
100.373035894306
100.37320424093
100.3733541954
100.373351927086
100.373410101782
100.373285933138
100.373048591876
100.372997112842
100.373099337586
100.373010174342
100.373042747704
100.372973378389
100.373025106917
100.373092634725
100.373075011475
100.373163704168
100.373166859626
100.37331044662
100.373153206558
100.373385605183
100.373408330431
100.37237674922
100.372751727107
100.371365467785
100.371954478198
100.370448917367
100.371248265449
100.369787216661
100.368817095088
100.369436168112
100.368632358557
100.369509630543
100.36876189816
100.368273869881
100.369248402666
100.368848908288
100.368626730863
100.369960912294
100.369926168265
100.370019710136
100.371588396567
100.371713447826
100.372427856821
100.372383992277
100.372513876096
100.372570329308
100.372672592892
100.372666413184
100.372751871006
100.372790093898
100.372879546264
100.372857331711
100.373011489908
100.372991978299
100.373047766425
100.373084903525
100.373000506301
100.372859032672
100.372738604266
100.372989840009
100.373020920747
100.373103480932
100.372822587245
100.372710238185
100.372925410537
100.372771317157
100.372387448555
100.371933899958
100.371955930332
100.372223012122
100.372311477628
100.37283454495
100.37265390798
100.372348135731
100.371828490095
100.37116341804
100.370355297437
100.370884453392
100.371114673428
100.370916659461
100.371571635239
100.371618753992
100.371750512231
100.371410848378
100.371694712145
100.372143793524
100.37228357969
100.372437721238
100.372410603727
100.372492587333
100.372495986517
100.372415717378
100.372431040478
100.372457643421
100.372475135943
100.372524344438
100.372561685686
100.372577223675
100.372665467737
100.372684028224
100.372689295031
100.372684748295
100.372717367012
100.372767564625
100.372806792231
100.372847384789
100.372934002161
100.372947571461
100.373129244609
100.373170957624
100.373103218544
100.373106944189
100.372836444186
100.372886021959
100.372880995594
100.372920644243
100.372894910461
100.372834144232
100.3730138971
100.373011679806
100.373005039095
100.373052215234
100.373097159727
100.373155863366
100.373212487353
100.373330690597
100.373389739108
100.373457635839
100.373526780452
100.373648823294
100.373728098869
100.373878343617
100.374178820269
100.374442923464
100.374619511045
100.374771301624
100.374663293455
100.37452439172
100.374187695782
100.373759727945
100.373401356012
100.37358496694
100.373172159135
100.372733158656
100.372158428666
100.371367727596
100.371027601055
100.37065027889
100.370437128179
100.370407427602
100.370246389926
100.370579363482
100.370317715534
100.369951302967
100.369583714865
100.36941561095
100.369990991676