/*--------------------------------*- C++ -*----------------------------------*\
| =========                 |                                                 |
| \\      /  F ield         | OpenFOAM: The Open Source CFD Toolbox           |
|  \\    /   O peration     | Version:  v1612+                                |
|   \\  /    A nd           | Web:      www.OpenFOAM.com                      |
|    \\/     M anipulation  |                                                 |
\*---------------------------------------------------------------------------*/
FoamFile
{
    version     2.0;
    format      ascii;
    class       volScalarField;
    location    "0";
    object      p;
}
// * * * * * * * * * * * * * * * * * * * * * * * * * * * * * * * * * * * * * //

dimensions      [0 2 -2 0 0 0 0];

internalField   nonuniform List<scalar> 
79506
(
99.5873598336442
99.5809391097494
99.5671523792956
99.5394147588621
99.5435721419126
99.549336649824
99.5588407374312
99.5413510648077
99.5250996117699
99.52509116917
99.5420019654622
99.5601780862353
99.5513506486741
99.5463369363396
99.5388152409962
99.5351099934656
99.5379797440891
99.5461111218787
99.5655231356086
99.5750200216233
99.573823400913
99.5624596955694
99.543505857188
99.5352320926796
99.5314794173241
99.5342994171773
99.5381817614583
99.5267845996405
99.5231435803233
99.5304868469749
99.5305721343781
99.523179547382
99.5269916209626
99.5387019914414
99.5347860216816
99.5320327456697
99.535883021042
99.5441608911191
99.5629605520452
99.5738978763379
99.5751681101434
99.5654519328591
99.5454040232306
99.5361908759176
99.5315895878026
99.5346149431488
99.5357672514019
99.5301616942416
99.5298414372392
99.5361135690697
99.5698272249729
99.5796652598996
99.5778843138237
99.5654842303073
99.5313702265387
99.5260194870396
99.5262208266487
99.5327135236171
99.5388901583409
99.51912725316
99.5066535663189
99.5304806498221
99.5302251928179
99.5063676840517
99.5185436696535
99.5382649341863
99.5321494812498
99.5256290716762
99.5252993556004
99.5308221413804
99.5651162061535
99.5777894080825
99.5797202646646
99.5700989937421
99.536803161359
99.5315891112839
99.5323003276122
99.5388231180236
99.5421429778768
99.5460263086286
99.5637079012325
99.5289809947708
99.4901778365432
99.4900747213972
99.5286540844215
99.5629744515869
99.5441965954343
99.5684904393521
99.5717030368793
99.572492738888
99.562019063388
99.5677773983025
99.5734490282354
99.5649892527079
99.5608502396726
99.5633266819474
99.5770119444277
99.5807528954261
99.5788835687326
99.5709975391644
99.5551421814292
99.5521344687135
99.556543408664
99.5547242584095
99.548052166676
99.5366068139073
99.5235828813164
99.538205505937
99.5379133991846
99.5232651771435
99.5361357842992
99.5475466425194
99.5542787587826
99.5562178498353
99.5518021003113
99.5548591720165
99.5708072485733
99.57876672694
99.5809458531329
99.5780861539198
99.5642813464752
99.5619086602048
99.5656198483439
99.5680735778543
99.5682861696054
99.5692736720672
99.5719044571351
99.5488943593379
99.5194259025954
99.5195648390885
99.5486883685716
99.5551690151794
99.5603867953445
99.5610336893957
99.5617133824459
99.5615645145124
99.5617947402235
99.5606417653696
99.5621618249014
99.5618756796281
99.5656657919222
99.5756369804941
99.5745333577976
99.5730787075292
99.570965505016
99.5708445127268
99.5724543194343
99.5658993292078
99.5704440286842
99.5445851933656
99.5509320519343
99.5507106993977
99.5442306742753
99.570177397448
99.5656446790355
99.5723125251229
99.5654304120876
99.565946953562
99.573585562903
99.5676043600645
99.5602736510404
99.563305553336
99.5619539691069
99.5618235091384
99.5632477104034
99.5636848822627
99.5624826282229
99.5636621275729
99.5623229553741
99.5654465075451
99.5659951593947
99.5593810526034
99.5635781228454
99.5710074258132
99.5701433657173
99.5710909910216
99.5663646048405
99.5638198840492
99.565548195268
99.5683978348884
99.5683699027581
99.5653649707686
99.5635240397522
99.5620727101968
99.5617397247493
99.5622349127007
99.563621490833
99.5689161202035
99.5688866356362
99.5682946133567
99.5682458632494
99.5687560482488
99.568991491004
99.5693307348613
99.5754775558227
99.5760226779762
99.5762256459093
99.5763252396842
99.5714345046841
99.5677287509155
99.5683545834635
99.5684402103211
99.5677000477252
99.5661975026273
99.5634666034011
99.5620907000384
99.5693508397907
99.575661393669
99.5747901210382
99.5743463530977
99.5742574110683
99.5742470635752
99.5743608960387
99.5747315835951
99.581098853842
99.5816086199882
99.5818772336874
99.5818311179913
99.5819104131578
99.5820627605476
99.5763481202163
99.5710206815314
99.5710542343741
99.5715641130465
99.5712810023076
99.5702648674665
99.5762589455075
99.5820682758553
99.5817827187601
99.5812148579655
99.5808936261752
99.5808839693329
99.5808596257536
99.5808463757775
99.5875792132924
99.5876478795811
99.5878259096851
99.5878702142675
99.5877752792337
99.5877444878048
99.5877904675522
99.5878382548797
99.5821144667973
99.576364590161
99.5764888610167
99.5764723909428
99.5819907003637
99.5878264827061
99.5879823165984
99.5879648360979
99.5877620604412
99.587640534368
99.5876452571742
99.5876126450843
99.594180996911
99.5941109923178
99.5940567534874
99.5940139798674
99.5939163623746
99.5937850529463
99.5936946112612
99.5936754138437
99.593697776432
99.5937513475658
99.5877876639486
99.5820360084138
99.5822944936082
99.5879862090792
99.5939044941031
99.5938609826578
99.5940249114272
99.5941516504522
99.5941694721624
99.5941776736503
99.5942011006119
99.6004974568699
99.6004914000086
99.6004067464334
99.6003117386703
99.6001730558753
99.6000005032615
99.5998433789329
99.5997490816359
99.5997372192876
99.5997733669335
99.5999001882879
99.6000537514696
99.6001836093551
99.6002965724048
99.6003825569432
99.6004579601565
99.6065902634564
99.6066295581466
99.606630465041
99.6065669711504
99.6064564149593
99.6063041838255
99.6061222388881
99.605978167938
99.6058942507058
99.6058924173459
99.6059542413252
99.606085086628
99.6062346613351
99.6063472578174
99.6064254258384
99.6065149217718
99.6126270761759
99.6126609123538
99.6126581182417
99.6126503071778
99.6126351236073
99.6125444408714
99.6124173327229
99.6122743354902
99.6121712139375
99.6121048968933
99.6120955224552
99.6121559653505
99.6122594700993
99.6123701849143
99.6124680464223
99.6125520059291
99.6186492554317
99.6187038051735
99.6187207186179
99.6186816027227
99.6186636574251
99.6186786711366
99.6186465394695
99.6185622459732
99.6184733429927
99.6184106659092
99.618363466774
99.6183390989517
99.6183701544239
99.6184423479207
99.6185173020053
99.6185842857215
99.624701694128
99.6247445935863
99.624775214759
99.6247906075179
99.6247913880718
99.6247916297903
99.6247949450235
99.6247936671023
99.6247626781143
99.6247404533908
99.6247117324352
99.6246598348501
99.6246089957398
99.6246017863619
99.6246297660062
99.6246654220201
99.6307977473341
99.6307985548815
99.6308328977582
99.6308517415408
99.6308402840231
99.6308503937107
99.6308910321705
99.6309305023905
99.6309648676171
99.6309871539484
99.6310218752785
99.6310370594262
99.6309724433241
99.6308944080574
99.6308458893455
99.6308218192872
99.6370003763734
99.636913445751
99.6368771087173
99.6369101665985
99.6369459194418
99.6369121036341
99.636870980859
99.6369356543943
99.637061761016
99.6371524315085
99.6372005971687
99.6372419353342
99.6372757922263
99.6372480809811
99.6371594098987
99.6370796661242
99.6432577107935
99.643118461015
99.6429904729451
99.6429615682331
99.6430481506171
99.6431279513592
99.6431236891919
99.6430608427887
99.6431189324632
99.6432819432482
99.6433952058889
99.6434017473383
99.6433645027074
99.6433665901645
99.6433990519469
99.6433633905228
99.6494865231135
99.6493719413754
99.6492142307495
99.6490494736259
99.6489913767172
99.6492361235881
99.6495141918123
99.6495654241313
99.6494590296909
99.6495156270954
99.6497342283489
99.6497944347885
99.6495912900782
99.6493862439236
99.6493812146865
99.649469227323
99.6558763866349
99.6557455902553
99.6556479098895
99.6556745919136
99.6554467175214
99.6551494040915
99.6554682533306
99.6562894315442
99.6566275938453
99.6563383554439
99.6564188169653
99.6568375722633
99.6566384025864
99.6558821049345
99.6555265592138
99.6557317908819
99.66331268261
99.6633076972537
99.6626228060656
99.6625785505063
99.6632137142446
99.663157594059
99.6623259853808
99.662202054009
99.6636994191136
99.6648628970336
99.6642610932017
99.6643541618257
99.6650954726896
99.6641002098695
99.6625846161682
99.6624982148124
99.6723392533215
99.6733927755381
99.6725152512806
99.6710451486308
99.6710738882674
99.6725678805954
99.6734833538195
99.6725066579637
99.6716145248633
99.6722659456948
99.6736622236783
99.673440594219
99.6734107147856
99.6737716217694
99.6722884325926
99.671541906645
99.6938417870114
99.6944552005821
99.6946987126907
99.6927105905667
99.6919515038546
99.6920677296626
99.6928671507913
99.6949420492251
99.6947828382156
99.6943656671403
99.6931434774263
99.6902720299041
99.6863431372589
99.6860357853158
99.689816221129
99.6926040639493
99.7492739326606
99.7415536431093
99.740372797559
99.7480123611597
99.7478858630406
99.7479339098597
99.7480329239283
99.7481367687123
99.7483469104477
99.7408146532763
99.7420032808575
99.749813641413
99.7505178467164
99.7803497153748
99.8061129113745
99.8061185087756
99.7803172425572
99.7313464055822
99.7313172445506
99.7850498481073
99.8772932280363
99.8789737722683
99.8787536993979
99.8659922404085
99.8491622108309
99.8465731033386
99.8814994693747
99.9148241182974
99.824288252767
99.8241915313698
99.8834234624224
99.8458888523854
99.8448846083681
99.8381594741444
99.838198036413
99.8451355842696
99.8462953700543
99.8838064534311
99.8246392339959
99.8247836237752
99.8818642613923
99.846775116788
99.8491960223849
99.8659702650133
99.9445178789683
99.9724629918947
99.9723632005742
99.9445289054724
99.940836638426
99.9435181204615
99.9623160420836
99.9925741568431
99.9936201432565
99.9157092043064
99.8909276347081
99.9902165039254
99.9657652050498
99.9483939030906
99.9484992296368
99.9821673557721
99.9350102707229
99.9350780508821
99.9822396593755
99.9485853401329
99.9485532342639
99.9659632976663
99.9938522349908
99.9925527397466
99.9624436721787
99.9435895901569
99.9407566979483
100.029543635134
100.110312711213
100.075724525343
100.075705645261
100.110369873413
100.098529906396
100.02959135504
100.100381391409
100.162961079859
100.160003977403
100.18389352369
100.184748933948
100.139714336928
100.100275444854
100.115435841575
100.036071088036
100.103930644099
100.16446160589
100.162364876501
100.175029760002
100.195786692707
100.146950083688
100.083828601586
100.0852160447
100.115712452381
100.044662701337
100.119293682186
100.120831120548
100.050736245156
100.122325385324
100.095999229694
100.028232393958
100.028270276248
100.095974281995
100.122380116143
100.050768443875
100.120853871718
100.119260977945
100.044648992162
100.115645077673
100.085203009895
100.083791412715
100.11536642033
100.100180541105
100.098473441662
100.139650991928
100.183844191083
100.15997073476
100.172622817092
100.193862261098
100.193852334496
100.17262711984
100.143313985717
100.143323330362
100.177390744378
100.219408768857
100.222478079381
100.222480640515
100.232415134934
100.222206991306
100.199889185683
100.225058152204
100.248126123994
100.248797954086
100.257174182988
100.254526169688
100.237599616064
100.213173307971
100.213461338643
100.222815025561
100.23327922719
100.201001846698
100.225856977852
100.248760005497
100.24936166426
100.254391682826
100.262065028264
100.2444474817
100.223640703501
100.223639297257
100.195522104031
100.147125628703
100.174213083256
100.159359565692
100.155801683009
100.156869439452
100.162220695306
100.176568025555
100.151139946182
100.151123541321
100.176560655136
100.162218426077
100.156881092794
100.155774057524
100.159339964708
100.174187234207
100.147100062423
100.146887840675
100.174983219099
100.162312737895
100.184698376514
100.213416791456
100.213136074246
100.222175375934
100.232390569167
100.24877947835
100.253638246474
100.261148788457
100.261152910056
100.253647886789
100.243619478926
100.243613074924
100.255105335749
100.270536076659
100.271678378986
100.271680278615
100.275371803251
100.27144757674
100.263134089358
100.272601914913
100.282457060436
100.282600236707
100.286299641725
100.284867750787
100.278179452334
100.268413317119
100.2741428925
100.274269898691
100.263819215627
100.254631088365
100.257582499964
100.238039832643
100.254059617071
100.268729115264
100.268815846064
100.272098201193
100.276203595848
100.263733724328
100.273134711002
100.282865621524
100.28313949811
100.285528438141
100.289076216729
100.281280003989
100.272590949108
100.272627286394
100.262150982284
100.24457372791
100.254590207371
100.249723424395
100.23318716194
100.200728134574
100.226612353179
100.225792289557
100.197502906976
100.225910629344
100.226438771391
100.201618020839
100.231714870608
100.223217294356
100.196832300354
100.196821484621
100.223203997749
100.231702740556
100.201607196198
100.22642376786
100.2258840967
100.197482181557
100.225758193158
100.22657530736
100.200693322641
100.233151071728
100.2236055288
100.223597200733
100.233234223797
100.222769906945
100.238005777052
100.254602284718
100.254498318586
100.257149005153
100.268393918151
100.271432250411
100.27536081261
100.282588700704
100.285404507657
100.288992820114
100.288993791023
100.285410089326
100.280833834238
100.280829128577
100.286145118224
100.293316578425
100.294010774941
100.294012317934
100.295641645311
100.296308485213
100.295666658255
100.291407285417
100.289602956694
100.294309391426
100.299213427898
100.299288050486
100.299946896778
100.299268355073
100.299068955554
100.30119726049
100.301212723624
100.297469337032
100.294337839191
100.28938097775
100.295543619465
100.29410760969
100.299192712323
100.303776639331
100.307343287647
100.309836200853
100.31127716856
100.312171237779
100.312885893804
100.3135365714
100.314187145485
100.314747545662
100.314547901717
100.314589460425
100.314499341746
100.314188998706
100.31362368408
100.312836244029
100.311496822218
100.310702375826
100.310941440207
100.311626679437
100.312309647938
100.312902371087
100.313388944417
100.313777266573
100.314078773188
100.314301806728
100.314451976517
100.314537839757
100.314576681401
100.314589727333
100.314651166088
100.314728954451
100.314823781984
100.314935866347
100.315064703194
100.315208886437
100.315366020442
100.315532692593
100.315704466829
100.315875778721
100.316039463788
100.316186229006
100.316303776334
100.316375765701
100.316379215711
100.316285329589
100.316065376909
100.315702336898
100.315214198479
100.314695113558
100.314359463851
100.314324250657
100.314316681081
100.314310046051
100.314310516261
100.314310876766
100.314307479433
100.31430200584
100.314283595816
100.314300357498
100.314326042665
100.314320161477
100.314290969839
100.314241189278
100.314249221707
100.314161506157
100.314156149479
100.314162936932
100.314157159924
100.314126619519
100.314057113202
100.314003934398
100.313902735032
100.313841115008
100.313948644784
100.314051630991
100.314064318603
100.314069329819
100.314077404246
100.314183892252
100.314209642131
100.314223303227
100.314224589002
100.314223225095
100.314211090433
100.314217742656
100.314219467306
100.314197753448
100.314139198665
100.314109158077
100.314131904586
100.314120149799
100.314110338505
100.314090210059
100.314078165895
100.314063616356
100.3140610299
100.314138295729
100.314208837821
100.314300226269
100.314390295484
100.314397348141
100.314399362856
100.314411812661
100.314414547716
100.314402191654
100.314392210485
100.314364625836
100.31434921586
100.314357336161
100.314319165853
100.314233275475
100.314215460858
100.314208343605
100.31417437823
100.314046482156
100.313964677274
100.314082155807
100.31409890484
100.313961513986
100.313896820485
100.313773950394
100.313690483132
100.313828624767
100.313858431091
100.313969285417
100.313944825209
100.313980863524
100.313998873831
100.314031207062
100.314061768383
100.314077070612
100.314191222504
100.314214244076
100.314154377473
100.314304752023
100.314396746187
100.314404847505
100.314399686239
100.31448844811
100.31448377362
100.314484226473
100.314486558914
100.314486868798
100.314485648588
100.314482198707
100.314490111018
100.314477379492
100.314417272555
100.314473777857
100.314469845052
100.314476195334
100.314480372153
100.314560689669
100.314566068543
100.3145637457
100.314560523246
100.31456166027
100.3145630843
100.314557848306
100.314551848945
100.314554898788
100.314542243983
100.314446833141
100.314380778097
100.314472223432
100.314463675299
100.314447473386
100.314449285543
100.314451318696
100.314461919115
100.314472964574
100.314478888286
100.314561170257
100.314563483175
100.314563505454
100.314637425383
100.314639618131
100.314641264766
100.314640542201
100.314641598391
100.314640471946
100.314637331316
100.314633483162
100.314634762141
100.314632463067
100.314630912024
100.314641802047
100.314632347814
100.314566798938
100.314503894494
100.314407947272
100.314294352312
100.314289359349
100.314293887864
100.314272734177
100.314195895142
100.314126044472
100.313989184817
100.313821902557
100.313724441785
100.313888599566
100.314026668706
100.314162763752
100.314129811887
100.314134423117
100.314146596155
100.314197107963
100.314279948469
100.314382418206
100.314395577485
100.314406935432
100.314409763741
100.314492853086
100.31449383586
100.314571390092
100.314567335863
100.314640734453
100.314636952742
100.314707793456
100.31470525884
100.314707203932
100.314711575022
100.31471511243
100.31471761516
100.314717228433
100.31470457468
100.31470346615
100.314717388471
100.314713694484
100.314715686222
100.314720635375
100.314715063711
100.314717919686
100.31472164583
100.314622282915
100.314503503732
100.314386415302
100.314379906426
100.314393712704
100.314276554018
100.314134123221
100.314017851123
100.31416137134
100.31427371465
100.314256515936
100.314229652854
100.314213389522
100.314207685306
100.314338772159
100.314402883222
100.314435628287
100.31448586297
100.31456138832
100.314566542885
100.314569223245
100.314575479313
100.314650498549
100.314645388937
100.314721176842
100.314713478479
100.314778230711
100.314771497709
100.314764635208
100.314764634413
100.31477846648
100.314781030214
100.314784933957
100.314791641456
100.314804294874
100.31480105377
100.314751524692
100.314797951804
100.314787856663
100.314784113874
100.31478150208
100.314778000063
100.314847276186
100.314845963838
100.314843637149
100.314847319944
100.314854047682
100.314861614425
100.314861294067
100.314861341214
100.314854395185
100.314792159594
100.314789747562
100.314796706493
100.31479242196
100.314794459815
100.314800253646
100.31480482994
100.314815463336
100.314821080436
100.314742117121
100.314647845929
100.314565408813
100.314655543605
100.314740414486
100.314726026176
100.314623092336
100.314494156913
100.314480358033
100.314488434815
100.314531340957
100.314535651138
100.314453434986
100.314353534206
100.31446460597
100.314409560756
100.314266658688
100.314235350479
100.314125892157
100.313972831216
100.313820858909
100.313691308293
100.313827266602
100.31397650386
100.31411859037
100.314107088202
100.314069760274
100.314000477132
100.313964997527
100.313821963825
100.313085488837
100.312310844406
100.312369539374
100.312971861476
100.313492891009
100.31399231912
100.313779191958
100.314092347361
100.313654508988
100.312551014674
100.313610664019
100.309617955203
100.311167857498
100.311595315569
100.307873154692
100.306126226817
100.306539727661
100.307868048001
100.309161839739
100.311283871339
100.312311231359
100.313036505287
100.31303208978
100.313706407468
100.314225112845
100.314579799974
100.314376289747
100.314276540967
100.314402339998
100.31452223382
100.314344978811
100.314017940722
100.311928029409
100.313261147194
100.311423019552
100.316984988647
100.314279533907
100.30902509749
100.311891241504
100.309397388102
100.303228898638
100.30302825618
100.310402267262
100.308451558018
100.311821190315
100.311983323965
100.313477058297
100.313763185113
100.313739753675
100.313674745389
100.313664015016
100.313649568198
100.313621978296
100.313599115499
100.313580719295
100.313569416069
100.31357863914
100.313545552034
100.313508271115
100.313467422378
100.31338535638
100.313265046523
100.313219737803
100.31334638818
100.313384760263
100.313422350342
100.313459167454
100.313469597432
100.313467916659
100.313482438587
100.313508501594
100.313529372655
100.313547674337
100.313564892493
100.313558719923
100.313526527334
100.313526165474
100.313418663624
100.313452680333
100.313428415447
100.313402153149
100.313405142228
100.313387744723
100.313367968591
100.313346778565
100.313296290554
100.313300015767
100.313319627279
100.313287762321
100.313196669575
100.313170464618
100.313212853753
100.31311112535
100.313059441123
100.312987256201
100.31286693254
100.312696518941
100.312667567708
100.312678709142
100.312694745991
100.312871087058
100.312937897401
100.313003026213
100.313048849388
100.313168474912
100.31317069837
100.313268714812
100.313191923331
100.313220010425
100.313314649096
100.313250276201
100.313284202015
100.3132988106
100.313327593365
100.313320641163
100.313236883415
100.313185089205
100.313185788187
100.313170206014
100.313152709628
100.313125813309
100.31309111989
100.31306405643
100.313058911832
100.312951405506
100.312836182682
100.312748189126
100.312646887758
100.312517155326
100.312371616363
100.312081148151
100.312103402571
100.312140332693
100.312172019635
100.312372550619
100.312506148056
100.312614069612
100.312701149263
100.312737406219
100.312848359357
100.312921030974
100.312961658482
100.312996080462
100.313024805697
100.313027476626
100.31305316289
100.313067485501
100.313064953209
100.313051649763
100.313203149241
100.312948254326
100.312970364227
100.312934733423
100.312922882995
100.312912641317
100.31287691197
100.312828911236
100.312780891984
100.312656153054
100.312621266239
100.312587304394
100.312510725136
100.312425189046
100.312223580428
100.312282368524
100.31239766578
100.312505223068
100.31241255692
100.312291432781
100.312141090164
100.311969919131
100.311643874707
100.31173844856
100.311831350837
100.311949073444
100.312076162573
100.312194157566
100.31230113026
100.312366113262
100.312473821492
100.312587900097
100.312708276243
100.312763238725
100.312810202429
100.312819850704
100.312839632688
100.312881833133
100.312898511025
100.312941871619
100.31284182993
100.312813859427
100.31276796706
100.312730261462
100.312682388757
100.312608466316
100.312533761915
100.312424645079
100.312505554176
100.312592642704
100.312668374414
100.31269944534
100.312748693957
100.312822203514
100.312889680163
100.312925512103
100.313235211951
100.312916126461
100.31286229164
100.312744700396
100.312685849835
100.312645128874
100.312567550981
100.312463640703
100.312357373306
100.312269519871
100.312174123611
100.312020648198
100.311818846413
100.311518326213
100.311269144469
100.310756457946
100.311081717529
100.311325575253
100.311551962404
100.311745528879
100.31181417818
100.311957955949
100.312093246247
100.31218685796
100.312272504125
100.312383769902
100.312495408464
100.312603723577
100.312658781909
100.312710247557
100.312812209103
100.312897591679
100.313028128777
100.312897102377
100.312804361765
100.312708460432
100.31263144117
100.31252548964
100.312392928927
100.312264672953
100.312161669026
100.31204544319
100.311875154213
100.311650967348
100.311360892077
100.310983565481
100.311239970522
100.311453520668
100.311694477335
100.311699448856
100.3118605323
100.312006152077
100.312122710429
100.312219439261
100.31235148787
100.312480995852
100.312616417794
100.312700716915
100.312788186705
100.312934746879
100.313064479447
100.313121250809
100.313446946253
100.313204334516
100.313112338247
100.312936017909
100.312785636956
100.312699476263
100.312590741266
100.312443261237
100.312285681874
100.312176634498
100.312044590209
100.311872797062
100.311656967834
100.311365607382
100.31102695981
100.311329614734
100.311568256552
100.311812003303
100.311755439841
100.311899542692
100.312035851393
100.312110110992
100.312161844087
100.312293315698
100.312439003609
100.312575460718
100.312649133591
100.312711937926
100.312817815218
100.312949393467
100.313087565011
100.313278627683
100.313441141711
100.313569675546
100.313995490717
100.313592436605
100.313475528614
100.313286510754
100.313107916542
100.31297160695
100.312856603311
100.312724457536
100.312568829173
100.312436911725
100.312336633285
100.312187663876
100.312023433122
100.311826681753
100.311562035522
100.311340588521
100.311718898256
100.311923200882
100.3121039745
100.312257930927
100.312345136331
100.312191455643
100.312016997875
100.31181459269
100.311531280653
100.31184348514
100.312042595677
100.312284358784
100.312160381305
100.312285563701
100.31242870419
100.312464708537
100.312491165443
100.312523294643
100.312611739532
100.312767934239
100.31280689976
100.312901145416
100.313005119361
100.313138703014
100.313302151237
100.313486560444
100.313581978232
100.31379999638
100.313612424583
100.313515207508
100.313336020349
100.313176815728
100.313064973963
100.312943944385
100.312813357444
100.312663473029
100.312550562902
100.312619951087
100.312497332224
100.312362171068
100.312245909727
100.312501453905
100.312617922636
100.312728938808
100.312764055288
100.312780035301
100.312859132918
100.312982911454
100.313103127086
100.31322158392
100.313345942439
100.313502450121
100.313678840081
100.31380643605
100.313936004643
100.314330334077
100.314013083031
100.313856656585
100.313699388662
100.313516979321
100.313384370759
100.313280038741
100.313178726452
100.313057612287
100.312949060616
100.312821494484
100.312721075982
100.312587762579
100.312375924611
100.312303863342
100.312597445886
100.312725581518
100.312836420115
100.312932199394
100.313032307894
100.312935283776
100.31283361886
100.312710713903
100.312608463167
100.312866933321
100.312968678562
100.313062618111
100.313153865179
100.313157125854
100.313163608618
100.313256831697
100.313373445498
100.313374821449
100.313471340277
100.313567314853
100.313712741296
100.313878284007
100.314095261154
100.31428029746
100.31440685341
100.314704865716
100.314440093404
100.314303088361
100.314126117134
100.31391187652
100.313763236877
100.313665747972
100.313571527019
100.313471514245
100.313384936874
100.313265535828
100.313183457237
100.313091294481
100.312979653821
100.312920868902
100.313158906146
100.313248680523
100.313318459196
100.313388897183
100.313502339506
100.313430090299
100.313373275116
100.313290140517
100.313117844832
100.313151223722
100.313345240046
100.313412553372
100.313528301901
100.313624156725
100.313504421049
100.313557412095
100.313651986341
100.313628916219
100.31359639319
100.313577677336
100.313689684107
100.313806929251
100.313777331742
100.313895689297
100.313983825823
100.314137357071
100.314306862062
100.314492364978
100.314639331538
100.314750191553
100.314950686357
100.314769139498
100.314654736077
100.314506492224
100.314323463602
100.314190786701
100.314096503509
100.314000143143
100.313884902237
100.313778330659
100.313726044088
100.313850861141
100.313890175492
100.313979711881
100.313948234272
100.313877142183
100.313773236795
100.313724896763
100.313763500831
100.31386186552
100.313892419927
100.313985934502
100.313951142668
100.313988146626
100.314072061354
100.314106167498
100.3140623768
100.314036038154
100.314083019372
100.31406492668
100.314187015284
100.31418654609
100.314279069395
100.314375640089
100.314512942435
100.314660046748
100.314796461422
100.314890824178
100.314971159413
100.315042329817
100.315112667981
100.315277292759
100.314991410529
100.315164120457
100.314761216598
100.315008396463
100.314449217162
100.314779755114
100.315178323272
100.314338323881
100.314709073859
100.313755374285
100.31423038436
100.314820316669
100.313832922619
100.314254001085
100.314739601279
100.313819744369
100.314218369124
100.31462667033
100.314003138786
100.314332229662
100.31398995981
100.313903123983
100.313908714244
100.313895685792
100.313884642882
100.313878711646
100.313868860492
100.313871603611
100.313887999084
100.313894444614
100.313882455602
100.313863030771
100.313792161403
100.313748124744
100.313772628806
100.313806314445
100.31369607921
100.313664913538
100.313640534593
100.313612831542
100.313569139892
100.313500724017
100.313432703806
100.313316996184
100.313293915714
100.313128847496
100.312933454807
100.312867684331
100.313090927484
100.313185776198
100.313042603594
100.312840415883
100.312696165041
100.312616956206
100.312417908579
100.312328505589
100.312300944172
100.31208006217
100.31205210594
100.31234983633
100.31254883326
100.312390356559
100.312567931774
100.312752991909
100.312903219222
100.313044227377
100.313141506826
100.313199113357
100.313326331239
100.3133788341
100.313504119611
100.31363712683
100.313755757477
100.313765699436
100.313775574943
100.313770023853
100.313760164539
100.313743552676
100.313659466837
100.313741743799
100.313856397399
100.313966975893
100.313978134254
100.313975044435
100.313978659447
100.313975857563
100.313973835764
100.313964287785
100.313927197725
100.313950035741
100.313964508311
100.314066641352
100.314184086659
100.314286956002
100.314381465666
100.314369220396
100.314386453299
100.314479998918
100.314488362208
100.314567923118
100.314645744346
100.314719067389
100.314789683482
100.314791678039
100.314854300048
100.314862089867
100.314862636858
100.314863669657
100.314859067491
100.314909626172
100.314906608035
100.314904953958
100.314907589501
100.314912051274
100.314918874913
100.314921514262
100.314925938196
100.314941332945
100.314937993032
100.314896555441
100.314852683821
100.314868750962
100.314868273193
100.314867101446
100.314869737155
100.314871032388
100.314877718791
100.314884107286
100.314894528945
100.314902248806
100.314832193906
100.314737218739
100.314627825484
100.314620300907
100.31458048393