/*--------------------------------*- C++ -*----------------------------------*\
| =========                 |                                                 |
| \\      /  F ield         | OpenFOAM: The Open Source CFD Toolbox           |
|  \\    /   O peration     | Version:  v1612+                                |
|   \\  /    A nd           | Web:      www.OpenFOAM.com                      |
|    \\/     M anipulation  |                                                 |
\*---------------------------------------------------------------------------*/
FoamFile
{
    version     2.0;
    format      ascii;
    class       volScalarField;
    location    "0.2";
    object      p;
}
// * * * * * * * * * * * * * * * * * * * * * * * * * * * * * * * * * * * * * //

dimensions      [0 2 -2 0 0 0 0];

internalField   nonuniform List<scalar> 
80212
(
100.342283613715
100.341670889824
100.341622920887
100.344380846768
100.347931570152
100.347906981754
100.34822316879
100.348143975974
100.348664922401
100.350175151914
100.349501613736
100.348538333372
100.348852249848
100.349972453559
100.350594529832
100.348818624608
100.348247827828
100.348233947216
100.347916521363
100.347932377625
100.348501163752
100.3487297099
100.349609262747
100.351363790293
100.34977095988
100.347703948847
100.346755945912
100.346577895164
100.347010996071
100.347379747829
100.349984833685
100.349774827165
100.349029744222
100.348645255096
100.347213281287
100.347510029595
100.348235312184
100.347453300331
100.348903882058
100.350872036359
100.350792874218
100.348818195825
100.347402535706
100.348215824222
100.347495713873
100.347193326162
100.348618323483
100.349004338068
100.349739658793
100.349972296304
100.347370452171
100.347005251356
100.346579529915
100.346758580524
100.347706548905
100.349773207454
100.351364604754
100.349609460066
100.348734756594
100.34850688403
100.345414861832
100.345731443893
100.345186033559
100.345428850703
100.345168399844
100.345073086828
100.344637730771
100.344374043358
100.34486802597
100.344816699945
100.345170506084
100.345085695501
100.344874109085
100.345399385702
100.34470809921
100.344258382161
100.34450508375
100.344490458557
100.344564205053
100.34429446233
100.34428837944
100.344558026597
100.344483089671
100.344503951144
100.344276200106
100.344748958165
100.345441347514
100.344911730616
100.345109242373
100.345182022905
100.344819839375
100.344868646429
100.344371261328
100.344637998123
100.345070955629
100.345162496686
100.34542491148
100.345182143969
100.345724017001
100.34540786272
100.344385076278
100.344475457249
100.345657591307
100.346077127471
100.345519901144
100.346156986341
100.345645373074
100.345404234631
100.345566202208
100.345948704771
100.346336034515
100.345576055428
100.346112373597
100.345680984838
100.344484163906
100.341714630681
100.343305381586
100.340859476024
100.340941344846
100.341083742714
100.343800907544
100.342123218117
100.340151052363
100.341212825671
100.342163538998
100.342282024323
100.341987732671
100.342920099756
100.343111203769
100.342001469964
100.342333631094
100.342225289386
100.342181503284
100.341892687917
100.340756849791
100.340139733504
100.341984849191
100.341328662801
100.340369291521
100.340359736845
100.341332346456
100.341961332655
100.340117418608
100.340761759683
100.341949823251
100.342243221955
100.342283900521
100.342369100416
100.342014312239
100.343111616637
100.34291975363
100.341986603782
100.342281077504
100.342160635887
100.341208892841
100.340144500914
100.34211872093
100.343790578142
100.342963726988
100.341621951024
100.341687964002
100.343254180185
100.34439820877
100.342556586453
100.340651315147
100.341407381131
100.342217257606
100.342310522009
100.341600557351
100.340836502983
100.342708410826
100.344489638116
100.340870896869
100.331695662949
100.332254347743
100.332400042103
100.331959696886
100.332803024872
100.341155275906
100.34154004796
100.341571963899
100.342414868493
100.344118858794
100.341522972997
100.340729832596
100.33954252466
100.342760124883
100.34049204929
100.339933269115
100.338600222356
100.339750931845
100.339235414378
100.34315844827
100.343203626354
100.339264908357
100.339839568691
100.33896577487
100.340081299942
100.338557569535
100.34115810076
100.341670685846
100.342191435034
100.340634425997
100.342885328022
100.339579483102
100.34072954471
100.341523641152
100.341146480081
100.341069687141
100.340929405642
100.340862213828
100.34088093532
100.34067622066
100.340648368618
100.332598404823
100.331074183529
100.330784451741
100.331059684292
100.331095551309
100.330867909799
100.331232262616
100.331331226366
100.332691593374
100.332575684344
100.332766963443
100.333802955597
100.338953266034
100.338349249131
100.334986637445
100.333310501569
100.332223410022
100.33231843606
100.334164316711
100.333708733663
100.333675875509
100.334091267396
100.333709577791
100.332693626047
100.332542282898
100.332674333456
100.332797726067
100.331957572103
100.332403701867
100.332268309793
100.331725847154
100.332632678834
100.33108048614
100.331637303529
100.331637102891
100.331613585746
100.331743585007
100.331761815835
100.331698783377
100.331819316247
100.331934210823
100.33211727833
100.331509037485
100.33182606532
100.332082192861
100.332131355487
100.332117463272
100.332412122959
100.332674683293
100.332626464159
100.332199548495
100.332105961031
100.331749629655
100.331471577896
100.331312487302
100.331222666659
100.330861805694
100.331102718401
100.331062436701
100.330782631646
100.331601035671
100.331443885014
100.331446758465
100.331447012468
100.331442963705
100.331554173065
100.331580501475
100.331575544313
100.331660925686
100.331673778912
100.331807962983
100.331693028258
100.331670099819
100.331627953499
100.331739019402
100.331745928226
100.332400380294
100.33204187408
100.332051854419
100.332045249074
100.332108506601
100.331928798886
100.331815029311
100.331701155573
100.331759417751
100.331737111941
100.331556648637
100.330515157032
100.330422002403
100.330439254851
100.330437680516
100.330416537659
100.330509175636
100.330547404528
100.330561174194
100.330681571581
100.330678624886
100.330762933526
100.330702494289
100.330729525555
100.330710075892
100.330765066704
100.330776543912
100.330743000323
100.330777653339
100.33169029813
100.331695995925
100.331809506839
100.331679888919
100.331662081469
100.33158097937
100.33157982655
100.330552276797
100.329359749467
100.329299314252
100.329216990584
100.329232753492
100.329230558345
100.329211427836
100.329290228109
100.329348665514
100.329389611241
100.329544308769
100.329581446923
100.329673171763
100.329669952822
100.329747219201
100.329761313238
100.329808890118
100.329802142529
100.329752989903
100.329747773368
100.329673932789
100.330726580704
100.330783168655
100.330682166894
100.330690174279
100.330572025092
100.329402114276
100.328289190256
100.328209524122
100.328117300916
100.328016550015
100.328023672727
100.328020594106
100.328009922261
100.328106192876
100.32819558532
100.328271290556
100.328483613537
100.328571724139
100.328696415774
100.328733561888
100.328852465826
100.328891432047
100.328953109319
100.328955114927
100.328890199064
100.328853474195
100.328749460871
100.328722269603
100.328592421454
100.32850104481
100.32741779137
100.327125501383
100.32699273508
100.326846359515
100.326695972176
100.326693028325
100.326688970944
100.32668650188
100.326832744266
100.326975669492
100.327105834753
100.327391032368
100.32755799822
100.327732315853
100.327817307389
100.327986451392
100.328051549722
100.328161068974
100.328195426336
100.328145679367
100.328078012118
100.327873882475
100.327768943557
100.327586760189
100.326427129717
100.326138060764
100.325700888845
100.32552256128
100.325283338265
100.325042286134
100.325037055936
100.325031690247
100.325030032057
100.325266613833
100.325500002977
100.325671867851
100.326104431069
100.326391171737
100.32664037769
100.326799499495
100.327074049245
100.327146567836
100.327375479264
100.327423672183
100.327275893334
100.327193425787
100.326882719062
100.326688040154
100.32528382158
100.32492381552
100.324435555243
100.323700672038
100.323555504504
100.323173073161
100.322793747317
100.322803063909
100.322797336054
100.322779347562
100.323151341684
100.323526765858
100.323659157242
100.324395909337
100.324880363768
100.325236143741
100.325548490372
100.326051861089
100.32601892643
100.326464548854
100.326488300192
100.326109275722
100.32612074487
100.325614359573
100.323836364099
100.323058809432
100.322564125179
100.321930533236
100.320600075441
100.320534785397
100.320005163378
100.319247276706
100.31944463687
100.319434611751
100.31922419473
100.319977877477
100.320500190858
100.320548724647
100.321887401778
100.322514182791
100.323010542119
100.323792369807
100.324715264
100.324360589416
100.325241546324
100.325263559626
100.324390560748
100.324736098091
100.32346026295
100.321406895009
100.318105922998
100.318154082877
100.317361917924
100.314853617457
100.315006668177
100.314356927481
100.312682937908
100.313634073635
100.313632384146
100.312672510508
100.314329466108
100.314956932717
100.314814442793
100.317289773069
100.318087937722
100.318025047732
100.321355689427
100.323421103156
100.322001522981
100.323811406252
100.323834932734
100.322014367129
100.319996565269
100.315395854289
100.310478338608
100.309984655712
100.3126810308
100.311233470011
100.306634486984
100.307264959108
100.306482783115
100.303285463694
100.305442260212
100.305465835346
100.303296345189
100.306458562514
100.307205038553
100.306558241822
100.31115983012
100.31262130402
100.309840452818
100.310417724199
100.315399636353
100.319969790262
100.315002938304
100.313654158899
100.313592471498
100.314943486278
100.328460290219
100.331512969578
100.33028872902
100.32614258374
100.325959130719
100.322855402925
100.318379678729
100.317415054869
100.316780195196
100.313644409616
100.314552907113
100.314566474344
100.313665690247
100.316777000001
100.317355126301
100.318268422878
100.322721744498
100.32580926482
100.325998805341
100.330186230742
100.331464987095
100.328382221648
100.333618164437
100.333581585405
100.37198810149
100.368347604512
100.366934281125
100.366590427071
100.363666255165
100.359410130416
100.354153529598
100.355250550366
100.347517348115
100.347750901631
100.345768873149
100.354935951277
100.372214641169
100.372271514917
100.354929345943
100.339893705654
100.339895566926
100.387743562474
100.423588213567
100.404285241382
100.404402897784
100.412522539344
100.403762956791
100.38778452455
100.345792998718
100.347725804652
100.347467047991
100.355095908939
100.353913291013
100.359154654045
100.363450512753
100.366416587895
100.366842817004
100.368283404323
100.371953900397
100.412492600583
100.412526828986
100.428230034687
100.416945886445
100.412177349129
100.409542219159
100.410610808621
100.418365556588
100.398908348584
100.391772807318
100.406386747234
100.393024298341
100.400167676489
100.40110374861
100.403678531457
100.412324136606
100.444803269009
100.438884894275
100.438942411267
100.445014487039
100.432216579762
100.433808718769
100.436143379832
100.400081961975
100.386088115532
100.401141821662
100.437954405755
100.457231381176
100.4709931192
100.478020272513
100.482668258119
100.487142433259
100.489316458885
100.490353022466
100.491025358777
100.49147373983
100.49181503061
100.492135897941
100.492505229521
100.492852831677
100.493033003424
100.492902117446
100.492448984916
100.491758163191
100.490782770696
100.489892076552
100.489897716566
100.491824691744
100.497142657775
100.508184206378
100.521922501506
100.543353666892
100.534265645182
100.484694388252
100.437752062566
100.388542435217
100.361581834097
100.378711207761
100.37919368033
100.37707793831
100.376999835284
100.377934841961
100.378979931389
100.380066145748
100.38132189001
100.382669020153
100.383878039583
100.384779017346
100.385343673185
100.385586267835
100.385108831366
100.384468077154
100.383602200684
100.38250369143
100.381141672523
100.379494948174
100.377643475321
100.375810704238
100.374390673324
100.373626209678
100.373563701864
100.373905254057
100.374163360576
100.374266886176
100.374367806023
100.37444833267
100.374459709622
100.374395873318
100.374259736733
100.374074301171
100.373881376102
100.373858475047
100.374072268312
100.374286363857
100.374401733373
100.374430207593
100.37446093179
100.374508703517
100.374566535093
100.374606980166
100.37468751029
100.374795796315
100.374854403804
100.374729603582
100.374695968597
100.374788759927
100.374712618662
100.374679143217
100.374714094441
100.374636726783
100.374743161227
100.374736147753
100.374630466586
100.374559848279
100.374519235355
100.374434819474
100.374454330809
100.374423352421
100.374368280122
100.374345346302
100.374240261128
100.373976183187
100.374228374493
100.374301315018
100.374329062319
100.374377829712
100.374403733367
100.374480680657
100.374518162836
100.374568028873
100.374674974088
100.374532489943
100.374576536931
100.374604837572
100.374476290875
100.374474640875
100.374464687518
100.374427716193
100.374354398249
100.374327441026
100.374274297877
100.374242812561
100.374178562047
100.374087087841
100.373799047078
100.373514609507
100.373825845175
100.3740729915
100.374126667844
100.374194493627
100.374218987695
100.374283299287
100.374315416334
100.374379251736
100.374404334727
100.374521268437
100.374582098987
100.374508600239
100.374188681706
100.373970993378
100.374173349877
100.374212217452
100.374192880286
100.374394966121
100.37429070221
100.374358225913
100.374482179031
100.374466296519
100.374362887178
100.374320454102
100.374255466856
100.374237196659
100.374170330426
100.374145603341
100.374069068178
100.374015184031
100.373788846098
100.373363311844
100.37378337484
100.373993884274
100.374033042374
100.374103601736
100.374120848165
100.374177865811
100.374232288569
100.37426933809
100.374312470925
100.374422178262
100.374431163883
100.374281229128
100.374280294838
100.374446167094
100.37430377367
100.374347911214
100.37427063788
100.374367054362
100.37425840034
100.374234757912
100.374193958586
100.37410369936
100.374120906017
100.374098514895
100.37404278343
100.373990217197
100.37394865751
100.373748016267
100.373314632724
100.373771033018
100.373933763423
100.373961576475
100.373999502892
100.374057088278
100.374077440171
100.374147984096
100.374193581542
100.374198083495
100.374197227267
100.374138479016
100.374293682484
100.374398332089
100.374203045315
100.37398241516
100.374090976554
100.374308512649
100.374188769456
100.374352765068
100.374257311001
100.374096004391
100.374046381844
100.374107180047
100.374045862064
100.374017838688
100.373960858649
100.373930192842
100.37390332642
100.373761886745
100.373344861707
100.373825142163
100.373878789521
100.373912030129
100.373924151895
100.373977268308
100.373995183751
100.374023984394
100.373982438158
100.374004683716
100.374023316042
100.374140192813
100.374175154774
100.374188059585
100.374282493127
100.374131823352
100.374015807226
100.3739658995
100.374084000786
100.374135338425
100.374157693178
100.373734637402
100.3733194415
100.37373605602
100.373677268425
100.374062014843
100.373944758025
100.374066137445
100.37404466612
100.373936863528
100.373930125799
100.373967914463
100.373910332159
100.373919524615
100.373942976935
100.373930926736
100.373874319901
100.373854163984
100.373804228835
100.373715423581
100.373275600411
100.372879981328
100.373499634912
100.373752489676
100.373782479517
100.373837026228
100.373853656336
100.373908919861
100.373883525818
100.373877648394
100.373907518865
100.373885569935
100.373890700472
100.373902391573
100.37397487278
100.373968000822
100.373855978933
100.374047885001
100.373955523539
100.37389972008
100.373871761172
100.373931603652
100.373924639228
100.373756006204
100.373449599521
100.373525749904
100.373833726748
100.37374899818
100.373919904008
100.373923179401
100.373871563003
100.373851384238
100.373867133693
100.373872350438
100.373827542971
100.373835659389
100.373858628884
100.373826166956
100.373820402247
100.37376502508
100.373732547879
100.373526330136
100.373016148684
100.373650239125
100.373734334238
100.37377180421
100.373797711841
100.373852905973
100.373840916323
100.373790500591
100.373770397487
100.373726900273
100.373681817802
100.373549780078
100.373049699523
100.372629494536
100.373331902262
100.373634435449
100.373688749453
100.3737343327
100.373773155453
100.373783170284
100.373824248357
100.373852937217
100.373853474436
100.373846353466
100.373854315143
100.373898716096
100.373871307328
100.373753270807
100.373923390556
100.37390481922
100.373858245261
100.373838995719
100.373910553575
100.373874140971
100.373745846915
100.373357534299
100.37381890816
100.373782581193
100.373954104472
100.373884014922
100.373908708569
100.373837202323
100.373830975341
100.373848621315
100.373850083186
100.373800895274
100.373796643176
100.373817412365
100.373817193512
100.373765978549
100.373746000631
100.373697423097
100.373658447496
100.373393728882
100.372874583836
100.373573603545
100.373691656464
100.373714724507
100.373757405031
100.373758908608
100.373814089336
100.373803693142
100.373803243079
100.373780959405
100.373838966347
100.37385117403
100.373832006714
100.373920239271
100.373908703976
100.373822326926
100.373375978686
100.373880361452
100.373825679105
100.373990322603
100.373953489101
100.373926161591
100.373845688445
100.37383739558
100.373842237433
100.373794825179
100.373807711351
100.373756409655
100.373755358482
100.373728518597
100.373687090471
100.373640584016
100.373524458768
100.372994325813
100.372728291704
100.3733507529
100.373624521874
100.373659944334
100.373705886419
100.373746222138
100.373750346793
100.373809225062
100.373785540052
100.373839871169
100.37386346822
100.37385409932
100.373972668598
100.374011513144
100.373956405268
100.373602972505
100.373960724903
100.374048066208
100.373980193958
100.37400118727
100.373993276082
100.3738672702
100.373877640967
100.373853566832
100.373812608512
100.373820807962
100.373762670594
100.373761188222
100.373735150718
100.37368434617
100.373659016724
100.373443559802
100.373068398189
100.373640919795
100.373698670135
100.373724310162
100.373759917883
100.373771384679
100.373827436187
100.373805626359
100.373869823937
100.373862941809
100.373889026363
100.373869462248
100.373902798421
100.374012959902
100.374057146211
100.373996473491
100.37359580738
100.373910972885
100.373997860741
100.373983868975
100.373887924953
100.373895163396
100.373982822733
100.373959246842
100.373807963402
100.373394831223
100.373865972238
100.373816943034
100.373970754166
100.373980960734
100.373968249324
100.373915485465
100.373891209439
100.373893172982
100.373910069073
100.373839345828
100.373804485837
100.373824187255
100.373843678009
100.373780911244
100.373772304629
100.373724583415
100.373684552708
100.373669367134
100.373209653428
100.372926295629
100.373588514887
100.373733895847
100.373733454756
100.37377124811
100.373806337186
100.373800986076
100.373858931492
100.373858009195
100.373879825154
100.373846084167
100.37391788109
100.373908305137
100.373932105428
100.373903771765
100.373930334559
100.373996276486
100.374006086865
100.373933851014
100.373479755147
100.373899158667
100.374005596218
100.374002141513
100.373924682521
100.373929061379
100.374036302868
100.374038935791
100.373942488918
100.373547642259
100.373929298344
100.373979420615
100.374068466979
100.374095257771
100.374046497057
100.373958964161
100.373960051587
100.373938990974
100.373949659782
100.373894662188
100.373861766925
100.373875176878
100.373828955485
100.373825489966
100.373804838741
100.373752533717
100.373705013135
100.373588007129
100.373097962741
100.372892404192
100.373490842928
100.373738242039
100.373777316499
100.373829814531
100.373849220998
100.373843608392
100.373902911008
100.3739168355
100.37387313717
100.373883610861
100.37387298334
100.373872555639
100.373821586578
100.373622196305
100.373337435451
100.373826611714
100.373892011127
100.373916090572
100.373918540085
100.373912894458
100.373951231066
100.373921948868
100.373973983415
100.373963088906
100.373999336922
100.373984418563
100.373995728494
100.374087470419
100.374122327407
100.373954624041
100.374055949901
100.374076474373
100.373986611711
100.374035847535
100.374134012659
100.374128610342
100.374026231369
100.373669478928
100.373971820088
100.374107993428
100.374123251865
100.374029425794
100.374017749688
100.374000887897
100.373954352268
100.373953758301
100.373979131586
100.373938207631
100.37395091998
100.373938287991
100.37393784759
100.373897259423
100.373532391814
100.37342033696
100.373882519447
100.373967265953
100.373992548359
100.373992900165
100.373984128655
100.374022717146
100.373979139688
100.374038920365
100.374064502133
100.374069695558
100.374175669798
100.374176606967
100.374076098938
100.373717411684
100.374005223472
100.374137718587
100.374154218687
100.374069583106
100.374071382464
100.374028955089
100.374028909241
100.374024420995
100.374057357798
100.374020280667
100.374034883217
100.374028696965
100.374037583835
100.37397542035
100.373641601102
100.373617631159
100.373993556138
100.374076313186
100.37409121879
100.374085255132
100.374080665321
100.374061329007
100.374091158774
100.374066120045
100.374132110712
100.374124717936
100.374218112369
100.374216620277
100.374138834118
100.373783083123
100.37408783981
100.374206393523
100.374217340584
100.374121581794
100.374114039424
100.374175139747
100.374178316906
100.374280084652
100.374277997459
100.374203061911
100.373902655484
100.374149266004
100.37427912393
100.374279706613
100.374174920521
100.374168700559
100.374122937133
100.374106201126
100.374150775717
100.374118270979
100.374133637515
100.374140157587
100.374141197232
100.374149284212
100.37410743112
100.373827100545
100.373864564817
100.3741444748
100.374210934148
100.374214316658
100.374204961806
100.374190579145
100.374170378634
100.374200458004
100.374179489487
100.374227935871
100.374234437005
100.374350849461
100.374376877321
100.37432454199
100.374029504398
100.374286122169
100.37437751628
100.374356035638
100.374244778041
100.374230808609
100.374293657761
100.374310701635
100.374438706622
100.374468710676
100.374437497401
100.374147174683
100.374362434209
100.37445552304
100.374442550872
100.374322045131
100.374297705862
100.374240671234
100.374215187743
100.374259896696
100.374228957907
100.374256715046
100.374271244891
100.374279566634
100.374289870556
100.374239348405
100.374150944033
100.374159432673
100.373788376563
100.373584822026
100.373519301534
100.373292688233
100.373234101358
100.373031792169
100.373048132047
100.372832862494
100.372861793005
100.372719153423
100.372716451866
100.372690874438
100.372628424242
100.372693827927
100.372589363161
100.372572613909
100.372711957467
100.372614161736
100.372708426773
100.372909334636
100.372920750062
100.373027666738
100.373199030012
100.373436620148
100.373666376492
100.373682896457
100.373371599237
100.373583985107
100.373803296232
100.374032836544
100.374194102676
100.374379559403
100.37450582557
100.374539634311
100.374577147043
100.374629025928
100.374674413782
100.374743824546
100.374820296946
100.374930505005
100.374988017179
100.374889965077
100.374789714667
100.374741836683
100.374489489894
100.37409576712
100.373673962004
100.373704591867
100.373912185812
100.374004914841
100.374474816816
100.374345437851
100.374046184401
100.374091188743
100.374023981222
100.373532156648
100.372902710597
100.372359595412
100.372686968681
100.3729572498
100.372951669335
100.37291059039
100.373293729666
100.373432017354
100.373475414933
100.373415519074
100.373178469448
100.373512470625
100.373978732709
100.374075654159
100.374300963694
100.374255195368
100.37426279967
100.374222993715
100.374264945664
100.37430441851
100.374352293619
100.374409007769
100.374467862641
100.374478530276
100.374519313569
100.374575803458
100.374609738584
100.374663106851
100.374739909751
100.374858658175
100.374924656614
100.37484341673
100.374857146471
100.37487983693
100.37483430512
100.374696740906
100.374653666742
100.374623739567
100.374690108321
100.374738723108
100.374722753316
100.374794891126
100.374861625256
100.374963882061
100.375011058071
100.374911225164
100.374817212928
100.374535210128
100.374171440861
100.373834888368
100.37375833406
100.373204800202
100.372681963014
100.372372055031
100.372425444424
100.372622439906
100.372545536343
100.372488154869
100.372461726211
100.371402304779
100.370963066838
100.370769301929
100.37074343368
100.370604037549
100.370937133693
100.371338569186
100.371441317688
100.371375304795
100.3708093208
100.371272994192
100.371710508553
100.372024729983
100.372346329258
100.373911463644
100.374084567316
100.374185962985
100.374220256834
100.374207450144
100.374272523625
100.37430029567
100.374323775992
100.374442643137
100.374440534941
100.374507231215
100.37454936176
100.374548658931
100.374587837055
100.374624175426
100.374676497628
100.374730422218
100.374773283216
100.374842706193
100.374904865327
100.375008669424
100.375051969715
100.374954924344
100.374854314969
100.374593707639
100.374257093122
100.373924674732
100.373434727866
100.372986699273
100.372681469165
100.372526467157
100.371901268945
100.371713866534
100.371500061694
100.37131519548
100.37113249493
100.370864676685
100.370770671739
100.371096670733
100.37141509952
100.371541978441
100.371706873599
100.371414615215
100.371579211202
100.371740536195
100.371358626405
100.37264815432
100.373951014153
100.374229853666
100.374406804274
100.374426330543
100.37448247561
100.374612320859
100.374640492932
100.374677473339
100.374729153391
100.37478098957
100.374821494363
100.374886127575
100.374942779618
100.375043636022
100.375072903181
100.374986623838
100.374881005245
100.374634791999
100.374321370459
100.373984676214
100.373555519656
100.37313075212
100.372818117123
100.372290656222
100.372190792039
100.371984821695
100.371802242928
100.371679253822
100.371719229115
100.371525391554
100.371173830918
100.371385404256
100.371498323109
100.371104145979
100.371244717565
100.370895720932
100.370530510085
100.370167922571
100.369862796277
100.369601181191
100.369339063874
100.369610634731
100.370007329942
100.370246881287
100.370578216442
100.370852387045
100.370664290998
100.370558758556
100.370467578149
100.370307882959
100.371084524133
100.37250119959
100.373951272117
100.374137111673
100.374183052306
100.374366717046
100.373949592192
100.374096982444
100.37432657966
100.374535689102
100.374657002681
100.374691048316
100.374746327132
100.374782892023
100.37483103743
100.374870476559
100.374939403011
100.374998556722
100.375086186085
100.375113853266
100.375030992118
100.374933621646
100.374702126349
100.374401436831
100.374093588296
100.37367089009
100.373274749154
100.372989008584
100.372477447856
100.372394576748
100.372274844896
100.372188130958
100.372219423007
100.371957593844
100.371837489233
100.372030313629
100.371777453574
100.371533926548
100.371286115308
100.370955925152
100.370628015847
100.370118087877
100.370403197528
100.370849444297
100.371196900129
100.371347098477
100.371587329651
100.371585586341
100.371494328778
100.370917383928
100.371296533815
100.370541217789
100.369803326605
100.369849737943
100.369091183304
100.368250309627
100.367289515705
100.366660852286
100.364991628173
100.365940284406
100.367138160085
100.368364802886
100.369333301454
100.370143733241
100.370783595202
100.370539564362
100.370479193253
100.369902242089
100.369257435555
100.368495196998
100.367306406409
100.366650265654
100.364463515838
100.360517986836
100.358595450971
100.363164143925
100.364866427109
100.364039394024
100.361247471361
100.359510210006
100.359379579089
100.356288428434
100.356940323759
100.358839904022
100.361766944767
100.363185895009
100.364778714674
100.365047506055
100.366729349927
100.368141606953
100.369329629676
100.370205393335
100.370975530898
100.371568070597
100.372089253888
100.371301928126
100.37110772925
100.370943910464
100.372951606067
100.372766554957
100.37243519517
100.372028313506
100.371545065301
100.370842012851
100.370375707659
100.368409851405
100.366638618017
100.366498738686
100.36848768305
100.368659009344
100.367503539545
100.363438318537
100.362308956853
100.361690412579
100.349954946523
100.353697948513
100.352829328239
100.35353024948
100.358937215171
100.357029109554
100.365294132034
100.370667649044
100.372839195898
100.372878751325
100.373081153142
100.373100935908
100.373437727816
100.373710057068
100.373934873553
100.374076942584
100.374253404328
100.374199701924
100.374357274634
100.374465570768
100.374592230986
100.3747167698
100.374761965793
100.374796698464
100.374833683899
100.374881057389
100.374920878441
100.374983585859
100.375036140616
100.375112736985
100.375136911058
100.3750576979
100.374972132505
100.374760948988
100.374458859985
100.374187185638
100.373754669939
100.373370604709
100.373119130739
100.372631521231
100.372563988955
100.372441181806
100.37241786194
100.372426684894
100.37232859234
100.372472388796
100.372269660322
100.372202552823
100.372224640325
100.372246793299
100.372025769776
100.371820469632
100.371596455823
100.371705270785
100.371984077249
100.371958628008
100.371698240698
100.371384795832
100.371601056844
100.371280295894
100.370934804787
100.370587122835
100.370203977278
100.369786948907
100.369395495891
100.368764401392
100.369136771179
100.36966715207
100.370134733965
100.370403413376
100.37076340553
100.371101143265
100.371109423191
100.371039293352
100.370728147898
100.370242701637
100.369837987492
100.369064353519
100.368365748508
100.37032324675
100.372537855132
100.372833035841
100.373125652856
100.374254443427
100.374414343751
100.374601935463
100.374702990596
100.374819035206
100.374845046079
100.374881792986
100.374930515631
100.374967697183
100.375025810264
100.375071137924
100.375147923642
100.375170014991
100.375106366826
100.375018416124
100.374837652729
100.374552025819
100.374292503177
100.37389525235
100.373553073591
100.373261346619