/*--------------------------------*- C++ -*----------------------------------*\
| =========                 |                                                 |
| \\      /  F ield         | OpenFOAM: The Open Source CFD Toolbox           |
|  \\    /   O peration     | Version:  v1612+                                |
|   \\  /    A nd           | Web:      www.OpenFOAM.com                      |
|    \\/     M anipulation  |                                                 |
\*---------------------------------------------------------------------------*/
FoamFile
{
    version     2.0;
    format      ascii;
    class       volScalarField;
    location    "0.7";
    object      p;
}
// * * * * * * * * * * * * * * * * * * * * * * * * * * * * * * * * * * * * * //

dimensions      [0 2 -2 0 0 0 0];

internalField   nonuniform List<scalar> 
87341
(
100.098648180598
100.1006602018
100.097054512901
100.101566417097
100.108583215762
100.108819261333
100.106854400939
100.107454948381
100.10766249312
100.107985616354
100.108154682496
100.107886449324
100.109667130322
100.109212996616
100.111446017227
100.111495011064
100.10900673963
100.105566852531
100.103062396697
100.102728714181
100.102600086066
100.104028839127
100.101834502139
100.103581673991
100.10589642197
100.110047997069
100.104667072314
100.103623626402
100.102866196447
100.102667900965
100.102546253895
100.102968706441
100.1035590602
100.104552907584
100.109796172749
100.105737373598
100.10336267702
100.101541044977
100.103673014875
100.102216960242
100.10240181329
100.102741528733
100.105271747068
100.108703739899
100.111056662328
100.110904913829
100.104154292702
100.103229777535
100.100369915975
100.100472723207
100.100808102251
100.100654354375
100.100594306237
100.100389550376
100.098034841674
100.101437503666
100.104877885922
100.103332873745
100.100069695347
100.099050627954
100.098340222802
100.099020774937
100.098965954012
100.098193591653
100.099110301117
100.100142821482
100.103481985032
100.105088576053
100.101687936079
100.098279412257
100.100717092997
100.100931136168
100.10093167751
100.101065726995
100.100625411211
100.100523455186
100.103533682453
100.104560485471
100.102147277899
100.105343059494
100.108424191618
100.109942630166
100.107799115043
100.107561694085
100.108779475052
100.106939973382
100.104471254028
100.100216006003
100.105679028925
100.094159707286
100.082960466132
100.088968498031
100.090179092584
100.100298035944
100.095131915947
100.096180127461
100.098773623663
100.097754279002
100.097232036138
100.09737469918
100.096675909876
100.10104465115
100.101618606512
100.097457628231
100.097878327459
100.095099439989
100.093955294717
100.094947837426
100.094966267174
100.094026037519
100.095148783068
100.097894387285
100.097597801468
100.101786287206
100.101325155678
100.09684590502
100.097747127763
100.097576928537
100.098039356289
100.099054906131
100.096351777614
100.095217330689
100.100744312194
100.101046183079
100.097707444642
100.10141600222
100.107811821752
100.112801361075
100.105753020008
100.105575377655
100.110392428084
100.125732044348
100.095202056415
100.095768715992
100.080383463223
100.053559344459
100.054450366486
100.050188533315
100.050683399034
100.056832549386
100.087072078289
100.098465358474
100.095254149909
100.094939535817
100.099610920241
100.106251172357
100.088274096708
100.088863705659
100.090195457619
100.099113177991
100.094316791889
100.09431456094
100.09908182198
100.090236863057
100.088935030004
100.088397656029
100.086853728253
100.087336437244
100.090637039895
100.08888700576
100.048991222299
100.051065008901
100.052297617339
100.05206800116
100.051112242101
100.05115487004
100.053288230557
100.053681352547
100.057335844703
100.086683974197
100.081833144381
100.065489507777
100.05977373706
100.059617373878
100.056731150003
100.057682919225
100.052148448604
100.052319966465
100.054674391532
100.058385879707
100.058395156634
100.054689397112
100.052313142583
100.057470036996
100.056565969771
100.050247209554
100.051123524455
100.057516627473
100.057943052409
100.057069234512
100.056758545125
100.057678708082
100.057533157042
100.056664135561
100.057771202144
100.057854930551
100.058522990778
100.058692104566
100.058046438716
100.053324070921
100.054127304522
100.05411815865
100.053371581181
100.052306461496
100.053428899056
100.053046805866
100.056516529673
100.057662586023
100.058420195758
100.058727271689
100.058054274945
100.057984686253
100.058678430829
100.058570894906
100.056430403647
100.056194774246
100.056314718568
100.056503125121
100.056600765068
100.056478969954
100.058272843509
100.057383229431
100.05736362603
100.057955127316
100.057436362714
100.056510820579
100.057660683022
100.056116363866
100.055998871192
100.056191359088
100.056288932966
100.056099989363
100.056145204377
100.056417687574
100.053981636187
100.054054139891
100.053996797493
100.054118541126
100.054194709905
100.054280783851
100.054244276699
100.054210249836
100.056441052582
100.058230944408
100.058532720935
100.058325704753
100.056302454119
100.053982050764
100.053889117103
100.053760401995
100.05378850979
100.053808849923
100.053771511046
100.053842611513
100.051840932222
100.052029767494
100.052100439912
100.052015578837
100.052148231569
100.052304596069
100.052438040402
100.052405195726
100.05236443932
100.052309263614
100.054171118358
100.056481804479
100.056888893997
100.054382975169
100.052567725828
100.052070359376
100.051885569312
100.051771727638
100.051868300351
100.051883026699
100.051778549573
100.049712244295
100.049740514799
100.050144338722
100.050210669494
100.050039221174
100.050203812959
100.050578298728
100.050829781654
100.050757288072
100.050713200594
100.050681057476
100.050325248709
100.049904088677
100.049784518263
100.050011057282
100.050017954494
100.047584687188
100.046986023483
100.046976314991
100.047728421015
100.047906153431
100.047560390148
100.047746430733
100.048444333784
100.04889258611
100.048793679014
100.048748426329
100.048716327203
100.048171034454
100.047383946112
100.047255771523
100.0476532167
100.045056607802
100.044867672106
100.043564271483
100.043428747004
100.045008903274
100.045495448471
100.045485915953
100.045774973533
100.046325189826
100.04712216484
100.046685893011
100.046659637987
100.046931828323
100.046026975969
100.045338379873
100.045019313905
100.040090417708
100.034328936982
100.033158219445
100.036078666958
100.036478034768
100.035000236484
100.035726117623
100.040992662336
100.042227412264
100.039109471474
100.041912460289
100.043209865666
100.043205912709
100.041888248272
100.038779124837
100.041662779283
100.062854269474
100.062210019311
100.063202455969
100.065503852434
100.072896239333
100.062954963166
100.062698126369
100.07189268458
100.069595357467
100.062553299233
100.069461494042
100.081534743168
100.080259701522
100.069399306613
100.060704292695
100.059206058994
100.056758733722
100.061405682248
100.06362420373
100.068739281612
100.062066560085
100.054685616304
100.054255662964
100.051440911653
100.046348083708
100.045698922135
100.050076296584
100.053590829407
100.05485694867
100.058683377409
100.072145114834
100.065545466973
100.069685486212
100.06274458131
100.064527585323
100.058490269729
100.069676286861
100.067872108539
100.066488881949
100.071222430577
100.090699278529
100.127058256425
100.170140711358
100.219815179994
100.270347421306
100.323748908042
100.36628252446
100.39830481551
100.436596419478
100.461859162025
100.475773391424
100.484089907847
100.450803847295
100.454736749806
100.458449301658
100.459315407977
100.457498909635
100.455333177956
100.455749408724
100.464632069032
100.463131039975
100.465415745652
100.467927382209
100.469946176221
100.472707622005
100.470981332886
100.472934824828
100.451122022927
100.465501856215
100.480265424984
100.464079633786
100.456615729321
100.447809566572
100.446861301133
100.449782518072
100.443022279061
100.42524261178
100.434757824742
100.444253750871
100.447710842638
100.438626586124
100.440170233649
100.446097043293
100.45484215027
100.452014150472
100.469556571291
100.419958967355
100.434312063727
100.43854172776
100.4367853502
100.432420726336
100.420058095466
100.42448152811
100.425301973582
100.417558290695
100.413971905538
100.418651861829
100.423216888372
100.424023737534
100.419049409091
100.413406251962
100.417635693957
100.426937546315
100.425475833791
100.469360924034
100.466220228095
100.412535832079
100.41527428712
100.413282539899
100.410482733699
100.417798436119
100.405203191921
100.400973180992
100.412772773833
100.412009237339
100.4118659111
100.414204644993
100.411618272476
100.418787932057
100.413046738458
100.40364968247
100.412433696314
100.421864230792
100.447848775317
100.442045830123
100.451729418106
100.45413777556
100.454905525683
100.455283108105
100.457526244293
100.458354431652
100.461509279675
100.458232473876
100.45897556897
100.460718860539
100.462985107458
100.456450637237
100.464365089954
100.449272872967
100.436456237078
100.43543548968
100.448339658948
100.442171505444
100.434876705248
100.430654931377
100.418985027805
100.411570907416
100.434164011656
100.453778734761
100.45493441489
100.455823913133
100.406695282897
100.406456724302
100.405577267638
100.399499260698
100.392696054058
100.398292387993
100.39435310922
100.389314750457
100.394872907505
100.397361391753
100.393838228939
100.396583257578
100.394172216306
100.396809124312
100.397576007962
100.391616114966
100.395595890646
100.39431024788
100.397323960367
100.393355438843
100.390416316136
100.398942967499
100.403150530959
100.41223795941
100.423463910705
100.425980779645
100.4223635714
100.415774234594
100.421428040897
100.454378489385
100.482434638041
100.466587513201
100.486292969224
100.501846767592
100.46634197278
100.44428095122
100.450701731974
100.469926923345
100.465714479509
100.462442132482
100.495617538141
100.485344225308
100.493008340478
100.480621327004
100.486892171954
100.478687111721
100.479167246535
100.48504383395
100.479695210442
100.495044913676
100.477875961971
100.488959942484
100.484346079587
100.48508048243
100.488072866095
100.497663525899
100.509657820672
100.511627132815
100.494205341679
100.493117323942
100.497957042423
100.501212727852
100.490889944647
100.463113738594
100.431417907552
100.43285649059
100.440416341774
100.444997550529
100.442856411859
100.434636200852
100.425496656354
100.415980842512
100.418923370737
100.402467375306
100.395065311786
100.403181720281
100.404078771923
100.41522405542
100.416598711051
100.404585015172
100.393237673432
100.410361427334
100.416405937861
100.413738125595
100.411256087965
100.408155459243
100.452553029208
100.456269182096
100.45575456202
100.412143873473
100.419050413634
100.416754061899
100.415091736696
100.411271990334
100.407459424107
100.415956238367
100.439865028689
100.448538499187
100.447419150058
100.401531568811
100.402931568086
100.384452363278
100.39324002396
100.406735501352
100.409600669846
100.40075230831
100.387029836274
100.389853475385
100.395289166018
100.409105823998
100.41457550012
100.427535578375
100.457531614227
100.490932641287
100.48852998485
100.472782167652
100.476868860542
100.479193157778
100.489941221106
100.494697953112
100.481269640234
100.482039178189
100.47532322983
100.50246399352
100.500147467992
100.503763270418
100.49882907021
100.484038331269
100.483641084304
100.496484910779
100.494306966306
100.489591775335
100.490336379814
100.493217451911
100.491336037824
100.492482636567
100.474026047516
100.482978460265
100.459982244908
100.446352792945
100.444989358565
100.446955665159
100.459975551602
100.439325949571
100.444872078468
100.442584087877
100.439793130039
100.435283201727
100.432241355446
100.463105199452
100.466919462676
100.467628730943
100.468745408606
100.463814222808
100.464617337323
100.464161816557
100.464166281653
100.462970147952
100.463833830175
100.462593171306
100.462905100544
100.460080174982
100.461640687496
100.46026190709
100.458720632164
100.457589800933
100.458038734107
100.457090444599
100.458491282663
100.459013971174
100.459822210319
100.458482449059
100.456303672326
100.454785733557
100.457144106701
100.456602895925
100.458717973764
100.459302427685
100.460613866483
100.464086383294
100.468146098435
100.469365513382
100.466376299076
100.466739186529
100.46570201695
100.465874126783
100.466031315106
100.465408417394
100.465548602058
100.465065676814
100.464790544392
100.46435536394
100.46369285086
100.46382678657
100.463558218479
100.463886548753
100.463825048639
100.463851079181
100.463777060231
100.463368771143
100.463365200382
100.462671709742
100.462691397465
100.462422371912
100.461717108101
100.460931117989
100.461989349256
100.46312653452
100.463806938219
100.463363943147
100.464605506607
100.466368465083
100.464924770507
100.467052230968
100.465870381222
100.466717781633
100.466636089349
100.467035295591
100.466371950344
100.466228171752
100.465760122352
100.465600917141
100.465949757695
100.466953829203
100.465822503428
100.466741289658
100.466373467061
100.466410992238
100.466220348658
100.465904256458
100.465481903026
100.464648389883
100.464030440616
100.46376516701
100.465755465382
100.466739287263
100.46697803476
100.467297625178
100.466320697399
100.468107091275
100.467032652997
100.466364115454
100.465287691208
100.465832439628
100.465069865921
100.466942392304
100.464762000634
100.464096028246
100.463663886078
100.461106963035
100.461266217255
100.464764471325
100.464517542352
100.46444503794
100.465118569523
100.465197654548
100.465845702404
100.466562193845
100.466314156303
100.466548605848
100.466434133147
100.466221629809
100.464594625174
100.465178092417
100.465410236865
100.463086478866
100.463416454161
100.461712946417
100.461738740724
100.463240306857
100.461068985397
100.461073460719
100.460805958351
100.462936639133
100.463967388695
100.464448513402
100.464524795076
100.464230963682
100.463843813381
100.46297446695
100.463329302899
100.463246076753
100.462781967504
100.457975170507
100.458611636042
100.460053426004
100.461582136572
100.463497061616
100.465768384259
100.467748345707
100.466054484991
100.465150808489
100.4619759674
100.457204967564
100.450593308115
100.457866931293
100.454787208583
100.453091708812
100.452170720282
100.446642992828
100.449286735269
100.452463753683
100.459450606496
100.45701011849
100.460445400123
100.458161753847
100.457060545643
100.460773032004
100.457685310804
100.457231289273
100.461223783326
100.457280309728
100.457246569388
100.460464922107
100.457163600318
100.45690568183
100.455974416923
100.456850025532
100.456240039052
100.459452751391
100.462155439574
100.459462216524
100.463287117566
100.461423902653
100.46243634641
100.462023261146
100.46267122522
100.462795508357
100.46217933162
100.462607770379
100.463656907242
100.464515216464
100.464243431258
100.464516423556
100.463852831834
100.464103669454
100.463585458308
100.463819801943
100.464453675926
100.464421897122
100.464580508454
100.464357126757
100.464533854107
100.463701815153
100.462516881994
100.462336585762
100.46313178849
100.462141894152
100.460707815282
100.461542214531
100.462115573894
100.460938604708
100.458745862677
100.459944128229
100.462941228129
100.463061865892
100.461549003368
100.458561594647
100.460011727128
100.463421077763
100.463161585383
100.462162342464
100.462138583668
100.463555888707
100.463328921464
100.462821329691
100.463275799178
100.463460477887
100.464301859609
100.464549567109
100.463784280492
100.463152523469
100.464517668195
100.463827043071
100.464588057013
100.463613247994
100.464537714755
100.463461523476
100.464278086974
100.461922810257
100.459993107084
100.458565524767
100.457400897821
100.45726193835
100.458434755449
100.459173797067
100.460798272924
100.463458537845
100.465378608706
100.464391078332
100.466930082393
100.465815327308
100.465922666329
100.466457498578
100.465312160726
100.46586356344
100.465415739215
100.465323144237
100.464762866469
100.463880151992
100.464329818469
100.463556012778
100.46372258242
100.463824556009
100.463865897687
100.464740928581
100.46293004696
100.464701066737
100.464383786085
100.462863548401
100.461883746862
100.462575329574
100.463666280287
100.462532786435
100.461268299465
100.460437682323
100.459745090361
100.459460548295
100.457042549092
100.458896799639
100.458524582424
100.458604731072
100.459377119521
100.460209226904
100.461174069402
100.462516977041
100.46408273434
100.465295412983
100.465552013566
100.466196834382
100.466715542782
100.465533453026
100.466247691769
100.465979313093
100.465873024389
100.465921084747
100.464820276927
100.465007658834
100.465496750684
100.464890256786
100.465128165907
100.465025611531
100.464991726298
100.465064726383
100.464753158341
100.464038009019
100.463398864789
100.462174183092
100.461947475773
100.462988079343
100.463187575434
100.461846902408
100.463400110993
100.460134135793
100.45800694982
100.452304763717
100.447451948296
100.451244951708
100.450578434114
100.449955188669
100.447954117675
100.447250103904
100.450054939112
100.450701312035
100.450795696804
100.450804692467
100.451063669435
100.451058653464
100.448817223383
100.446945882502
100.435906497566
100.436611298152
100.438212351577
100.440812409011
100.445043219275
100.449947185387
100.455318515481
100.45373697153
100.446002753016
100.430978172661
100.41436224872
100.437058954305
100.430109162799
100.422604411843
100.420096214557
100.421080901033
100.421615525246
100.411426706699
100.425583405997
100.440145861921
100.434893065723
100.443146008623
100.436825390426
100.435401180401
100.443102514218
100.435939538346
100.435825328134
100.442567456183
100.434252333392
100.437177489657
100.431738909067
100.440634292583
100.435515715988
100.443163998893
100.444317031476
100.448599677636
100.453806011629
100.458391360616
100.463315809373
100.46368987013
100.462719465003
100.463220376074
100.463674697657
100.46198029746
100.462325349411
100.464263720771
100.464343193183
100.46262771648
100.462181518425
100.460500436635
100.458434471312
100.450405390252
100.436987165926
100.424041482812
100.415243255729
100.407834909502
100.417663714288
100.412570865241
100.416032232434
100.408689903771
100.40537120994
100.402790045153
100.402621764372
100.404435072454
100.403703003605
100.409327549427
100.381128254756
100.369377362314
100.371848989117
100.378563857993
100.398341651725
100.400405980198
100.385066712818
100.368652310609
100.36534184839
100.337200191319
100.340840408899
100.344705249775
100.358376313115
100.35208730747
100.331814309239
100.298358185811
100.279827537105
100.314765220981
100.302061838928
100.298884038417
100.307322007322
100.336424813915
100.34313106791
100.331897000996
100.358645674199
100.381088145881
100.380725534511
100.380240272439
100.380164347194
100.379834670773
100.370667883247
100.395802109445
100.377456529283
100.391935836088
100.387824674884
100.393481382891
100.401516082425
100.413986312259
100.439499821643
100.446304154307
100.454399173061
100.46208807572
100.460168047014
100.453062496119
100.444095856855
100.420906547565
100.402473395956
100.36817575599
100.345274207843
100.331744485511
100.324138189614
100.323172142236
100.341204790756
100.330581510137
100.333757448621
100.322159797637
100.324513228569
100.322643772513
100.322038425147
100.326724486034
100.286534518879
100.276163084589
100.286188471945
100.315269019146
100.359912320323
100.388872757281
100.413354550039
100.432944425106
100.443499320382
100.449787446169
100.452188516447
100.452663955792
100.459838872444
100.492296921479
100.476275177022
100.471936383318
100.471199898437
100.472303099673
100.473745252512
100.478605395585
100.497075975394
100.485021957472
100.474582115606
100.471829196912
100.444944333946
100.428086611987
100.427129333446
100.431653302632
100.44812610067
100.436308173365
100.431167171028
100.426181344284
100.415918302762
100.416900274769
100.427684315925
100.42908695623
100.418598499056
100.420575456143
100.431511000194
100.435766668184
100.438521950583
100.451172978662
100.414846794964
100.413244467388
100.410143238716
100.40209809988
100.40270388283
100.41233036298
100.405591026744
100.40493372013
100.398466980363
100.392938783164
100.399327802379
100.405239128782
100.457024522266
100.462890316818
100.460438402468
100.464768273598
100.462164516432
100.468125768473
100.467044598497
100.470611517836
100.467367561268
100.465980016249
100.464387212074
100.466502739149
100.463944748894
100.464107966585
100.46517674097
100.465433199754
100.467940654192
100.469641691935
100.469588166555
100.468595365102
100.467563574105
100.467167626363
100.46690688202
100.466660450041
100.466687507615
100.466749303601
100.466296605548
100.465662799538
100.465822287424
100.465792088883
100.465178447548
100.464809060781
100.465164664273
100.466711072115
100.468143004896
100.473436502808
100.468609127084
100.467349974325
100.465310153073
100.468148849247
100.466629334107
100.467099227234
100.467889020458
100.468480843801
100.468707238941
100.468250403298
100.467823884032
100.467284058084
100.466837508571
100.46670187498
100.466817792773
100.46677802026
100.466677527794
100.466738149623
100.467202298336
100.467418019285
100.467388233163
100.46726059991
100.467409112012
100.467309278625
100.46787703193
100.467930590082
100.467771635615
100.467783652625
100.467727511358
100.467634032202
100.467546132184
100.467311848242
100.467437302923
100.467627057669
100.467616255884
100.467806864666
100.467370898241
100.467094854788
100.467594508615
100.467965486568
100.468345872475
100.468100796227
100.467867345968
100.467900447547
100.467559122432
100.468075404781
100.46828606835
100.468253136746
100.468145045509
100.468229748053
100.468236823056
100.468364120609
100.468281652741
100.468668269603
100.468782843197
100.46858719571
100.468623668433
100.468571885463
100.468754420586
100.468908964306
100.468867206756
100.469078389311
100.468949767126
100.469405679872
100.468555224524
100.472617127067
100.473885811099
100.474777418038
100.470784551675
100.470950163889
100.470464095743
100.469260662782
100.469470870607
100.469423935758
100.469231712733
100.469267199258
100.469088756155
100.469350406728
100.469211963631
100.468793854366
100.468620189256
100.469057322497
100.468864049789
100.468131128101
100.468228164881
100.468593901187
100.46868088805
100.468902021234
100.468386299298
100.468570666055
100.467849647259
100.467941229397
100.467988689158
100.46827604892
100.468080378484
100.468242931615
100.468474261103
100.468969591748
100.469125815948
100.469592768645
100.469588210452
100.469679789447
100.469586873741
100.46845531512
100.46872946896
100.468786458881
100.468893431017
100.468197037792
100.468465725145
100.468394765953
100.468299100222
100.46818327261
100.468417904928
100.468478727239
100.46863144432
100.468885453987
100.46922200882
100.470236301236
100.469896696352
100.469781846198
100.469437547512
100.469095788414
100.469334867679
100.469358530187
100.469314724816
100.470028425866
100.469850458115
100.469619970585
100.469506681715
100.469903647232
100.469889116369
100.470394909731
100.471209484638
100.471090139018
100.471324505735
100.472691427357
100.470630695047
100.470500665536
100.470154861505
100.470189277373
100.469753893252
100.469942224749
100.469586257453
100.469730336813
100.470098540999
100.470198153311
100.470420027773
100.470418557117
100.469826727706
100.470094273434
100.469950721616
100.469562043759
100.469723009053
100.469642417948
100.469642745531
100.469410481355
100.470018755922
100.470015475928
100.470216025898
100.468986162373
100.468588716365
100.467722557364
100.467864317912
100.467422326802
100.467822190677
100.467629230597
100.467686526971
100.468143350562
100.468013417084
100.467858434759
100.467549511937
100.467858053566
100.467461131342
100.466649885334
100.465015889097
100.46614449417
100.467052284445
100.467679772548
100.467184215178
100.466515255417
100.465606349787
100.46494301045
100.465017147757
100.464949720624
100.464948903305
100.46401459495
100.464866339698
100.464950704282
100.4672588964
100.467235281122
100.466799173176
100.465993199859
100.465451120261
100.465297700767
100.465044995598
100.465243225849
100.465220273785
100.464487527477
100.463679954362
100.463646640182
100.464170119622
100.464128433697
100.464666412638
100.463353068236
100.463151776708
100.46252990265
100.461387364713
100.460466996611
100.459908011071
100.459648414706
100.460031437813
100.460141117431
100.460229497092
100.460836386466
100.462238156384
100.462034350794
100.463777685933
100.462597811443
100.462309072664
100.462221359365
100.462764511852
100.465849541503
100.46454263147
100.463307332598
100.462751202077
100.464555028493
100.465291292167
100.467302518966
100.470568443042
100.467675900105
100.470378497883
100.470467353672
100.473075321464
100.472542444386
100.473781387088
100.469769563192
100.46753539805
100.465864906995
100.464713254383
100.465907952871
100.464958844133
100.464256688947
100.463576192056
100.464523676972
100.463230004007
100.463122615598
100.462424516567
100.461901521561
100.461515017624
100.46205560442
100.460218663233
100.459355707725
100.459033142325
100.459151532634
100.459120088365
100.458796777572
100.459069521408
100.459519086156
100.460374009768
100.46181632684
100.462066183685
100.46185131338
100.460337608692
100.461068819784
100.459813701319
100.458672463195
100.459665481387
100.459998082147
100.459250348065
100.459444572841
100.459539895266
100.45940926754
100.459776324855
100.460579647865
100.460252118316
100.459862459912
100.459591338017
100.45909510575
100.45957655883
100.459147370569
100.459486113418
100.45945908089
100.459288787001
100.458999721404
100.458959836866
100.459292721081
100.459522072288
100.459723253393
100.459858276786
100.460399133753
100.460569930639
100.460711945923
100.461221309068
100.461401058723
100.4611493272
100.46075824171
100.460534290003
100.460293289111
100.460340325248
100.460563899283
100.461385590096
100.460988528061
100.460475759971
100.461175504289
100.461285886316
100.46128964536
100.461501109504
100.462103622683
100.46179293078
100.461402791097
100.461166419189
100.461011633107
100.461343106287
100.461088134493
100.460915511652
100.461206542413
100.461433893462
100.461976149233
100.462188897116
100.461905823191
100.461688999577
100.461668494147
100.462176707746
100.461808520618
100.461541894164
100.461711591911
100.462834654108
100.462952324834
100.462236160486
100.460937466598
100.460713152936
100.462541221704
100.463190292359
100.462732657225
100.461235665238
100.460446223365
100.460896831395
100.459849809482
100.459401417095
100.459335048546
100.460633144312
100.461403678817
100.461114539299
100.459482922863
100.459222191315
100.459197677912
100.459140308097
100.459346558151
100.459771264555
100.460434667963
100.460103135187
100.459568666561
100.459439814228
100.45985170878
100.459390270234
100.460374096085
100.457873265288
100.45882776474
100.45886612096
100.458587823705
100.458098095818
100.45728394616
100.457408088647
100.45858710618
100.45900227356
100.459826091591
100.46068185559
100.460374621697
100.460882110409
100.460930686864
100.461274762449
100.461629643008
100.462217849144
100.462277950863
100.462812226826
100.46243089261
100.462163012892
100.46219678471
100.463305295037
100.463067352889
100.462610953095
100.462349450704
100.463926080581
100.464476214033
100.464348819702
100.464219909238
100.463962994484
100.463854611825
100.464606485765
100.465956042823
100.465978934377
100.466150004579
100.464211266777
100.463140496125
100.462539095819
100.462523482666
100.46182009553
100.460120851193
100.459015628314
100.458607486896
100.459068209026
100.459829123875
100.457924490228
100.460251321486
100.460002405189
100.459539545453
100.45874643536
100.457926072926
100.457579918905
100.458281664493
100.459439426503
100.460384092481
100.461782946307
100.463780306047
100.470484524131
100.473801334934
100.49285745183
100.48692602059
100.452110756229
100.418356993239
100.379911732874
100.358752206328
100.373167631085
100.370503306689
100.368719121584
100.369022027113
100.369799143008
100.370631411165
100.371720574108
100.373178789659
100.374875058969
100.376535807677
100.377925234948
100.378925210814
100.379460077745
100.3780046473
100.376413938075
100.374735555228
100.37306184762
100.371517136788
100.370151449464
100.368995162536
100.368032768263
100.36721576507
100.366504203853
100.365891634329
100.365415375625
100.365179305488
100.365295813718
100.365871875692
100.3670126669
100.368593201898
100.370240974252
100.371544625221
100.372012955348
100.371886069768
100.372032829343
100.372040648377
100.372048991815
100.372071321503
100.372089051774
100.37210297315
100.37205950591
100.37220679234
100.372218085154
100.372275366845
100.372214008968
100.372204614243
100.372124706918
100.372054430581
100.372076212931
100.372055800499
100.372018422507
100.372054433436
100.372007747771
100.371978488519
100.371969352264
100.371955323667
100.371851303049
100.371832243629
100.371757232592
100.371893345817
100.371901589922
100.371920555035
100.371953635093
100.371996550595
100.371955262232
100.372074398925
100.372087280256
100.372238206222
100.372125225556
100.372066221191
100.371976638966
100.372058231309
100.371933042447
100.372135502271
100.372062373701
100.372045968705
100.371912055599
100.371909484647
100.371872352018
100.371839779761
100.371803141476
100.371806990134
100.371671159435
100.371618416586
100.371506604756
100.371291812436
100.371535783606
100.371628530032
100.371642838884
100.371758299206
100.371747865624
100.371763599342
100.371838568948
100.371889627076
100.37186999703
100.372030999019
100.372047351163
100.372032983999
100.372021051371
100.371945819321
100.372069304563
100.371917418073
100.372017249675
100.371991283901
100.371827897778
100.371843024052
100.371799879889
100.371742934659
100.371691872956
100.371695754925
100.371582150212
100.371556557644
100.371439722492
100.371144760062
100.371481084404
100.371555509
100.371566554052
100.371641591954
100.371642070999
100.371696223516
100.371737694633
100.371792598718
100.371753589233
100.371906184402
100.371870360508
100.371948168451