/*--------------------------------*- C++ -*----------------------------------*\
| =========                 |                                                 |
| \\      /  F ield         | OpenFOAM: The Open Source CFD Toolbox           |
|  \\    /   O peration     | Version:  v1612+                                |
|   \\  /    A nd           | Web:      www.OpenFOAM.com                      |
|    \\/     M anipulation  |                                                 |
\*---------------------------------------------------------------------------*/
FoamFile
{
    version     2.0;
    format      ascii;
    class       volScalarField;
    location    "1.3";
    object      p;
}
// * * * * * * * * * * * * * * * * * * * * * * * * * * * * * * * * * * * * * //

dimensions      [0 2 -2 0 0 0 0];

internalField   nonuniform List<scalar> 
79587
(
100.072411679846
100.074356216221
100.070980484913
100.075327499044
100.082369139353
100.082484744213
100.080440287484
100.080965160308
100.081078222042
100.081452448929
100.081739744115
100.081551873811
100.083430172272
100.083118233418
100.08545602217
100.085413747411
100.082095812192
100.077448945477
100.076430893429
100.076427745041
100.077417842268
100.077134590662
100.076352898256
100.077897738085
100.084306814441
100.08420527601
100.078548777904
100.076880225458
100.076853677362
100.076036833549
100.075909716505
100.076977975943
100.076889767737
100.078504961124
100.083968122605
100.083872013036
100.077697749797
100.076313214633
100.0771229071
100.077193987414
100.076290899785
100.076295670314
100.077363232098
100.081927931776
100.08507125592
100.084927683515
100.078029307169
100.077577076977
100.075290663067
100.074581818882
100.074709310493
100.074576606415
100.073983761156
100.072661905504
100.073778942405
100.075096305226
100.075194952306
100.074287879423
100.073321885561
100.072097687273
100.07176809425
100.072358297681
100.072282140075
100.071606582433
100.072108686193
100.073303820645
100.074133746445
100.07521914224
100.075294850019
100.073879824755
100.072801710561
100.074155965111
100.074649274226
100.074754007913
100.074540688641
100.07524591185
100.077784527799
100.078506631713
100.076096993346
100.07899837333
100.081913457099
100.083264909704
100.080942457246
100.080751846545
100.082144233798
100.08042552263
100.078064072923
100.073834210369
100.079111455264
100.067881097588
100.056879601471
100.062648200857
100.063744126408
100.074688579714
100.070359225132
100.070988359114
100.07331270613
100.071437325189
100.069955175844
100.069369923794
100.072089955919
100.073906726766
100.069766030216
100.069003903796
100.071202437661
100.067941059262
100.066829436317
100.068060530115
100.068062019137
100.06687512781
100.06795098876
100.07114464707
100.068876399467
100.069311334308
100.073949916306
100.072525633527
100.069657300131
100.070097297954
100.07148541918
100.073305623976
100.070891038393
100.070198173635
100.074947856869
100.074972485278
100.071953699642
100.075065722367
100.081276938017
100.085965331229
100.078909297871
100.078852662607
100.083658081135
100.099601428116
100.069299058629
100.06982027762
100.05413002862
100.027145108556
100.028081645933
100.023907510235
100.024206907491
100.030494801012
100.061913614431
100.073120621364
100.068826049156
100.068566357093
100.075258044897
100.063476584316
100.064172566802
100.064005466631
100.064236168917
100.07199293564
100.067530276437
100.06751248426
100.07192999224
100.064253994113
100.064067529552
100.064204068615
100.063335859281
100.062039097918
100.06404147454
100.061999391485
100.022367525817
100.024786429259
100.025593479626
100.025229407536
100.024624376753
100.02471216965
100.026185616143
100.026799801705
100.030930918055
100.028179978658
100.029167862355
100.032679735038
100.032684493975
100.029213502371
100.028192491542
100.03073853784
100.030242645062
100.023637042045
100.024452818344
100.031024730482
100.031700907595
100.030298187465
100.029949658974
100.031223188388
100.031129408209
100.030312242008
100.030636960954
100.030869508748
100.025855357809
100.026679847359
100.027912326727
100.027868715436
100.026597673168
100.025696019501
100.026600519325
100.025933667361
100.030124977366
100.031468377184
100.032063063424
100.032218411625
100.031596338391
100.031698671613
100.032356988693
100.032237697044
100.031671887111
100.031864613424
100.032014855485
100.032023557592
100.031211656038
100.030871351693
100.03081152589
100.031067234529
100.030619305893
100.030421204439
100.031668484888
100.029939227396
100.02976827001
100.029955230763
100.02978405213
100.03007285447
100.030390740645
100.03026751202
100.030122947483
100.029907435544
100.030076339019
100.030059831855
100.030060324581
100.029944603562
100.031681609538
100.031637991705
100.031918257968
100.031821077716
100.029935116199
100.027616327167
100.027653900979
100.027547480875
100.027645291352
100.027576884866
100.027389904294
100.027405555289
100.027611806772
100.027656929006
100.027552775992
100.027698480636
100.027661286937
100.027732384967
100.027692050015
100.027676754035
100.02991965576
100.030038298366
100.027719629487
100.025799959208
100.02571293756
100.025748541678
100.025681223938
100.025778303445
100.025882633008
100.025976991526
100.025711120339
100.02546726594
100.025630410313
100.025546674992
100.025683392649
100.02566473111
100.025773168945
100.025762111949
100.025765796474
100.024054246821
100.024081663489
100.023991885176
100.024019937849
100.023957489431
100.023977292889
100.023855047407
100.024102227227
100.023957481452
100.023610941584
100.023810084892
100.023706884944
100.023844332726
100.023844962275
100.023994663046
100.024025326563
100.022203229585
100.02225861765
100.022252606857
100.022116072376
100.022132058483
100.022039598321
100.02201405072
100.021752166941
100.02138771156
100.021416587493
100.021696144099
100.021793299108
100.021712274474
100.021855961884
100.021882389005
100.022115289195
100.019856032002
100.020033328432
100.020108310545
100.02005207035
100.019837542549
100.019831134225
100.019669945977
100.019632529485
100.01955658608
100.018708492402
100.018691083473
100.019378969137
100.019289966365
100.019313748228
100.019455869841
100.019527872531
100.016118727591
100.016753359989
100.017100624985
100.017186756681
100.01697541046
100.016502493096
100.016719423713
100.016472350578
100.016165480594
100.016486971499
100.014958647057
100.014858471455
100.016170049409
100.015713488499
100.016079768737
100.016246464427
100.011393755043
100.01023239886
100.011608656299
100.012642882169
100.012737868627
100.011923401143
100.01068324132
100.012032363627
100.011872759662
100.010118744255
100.011804625915
100.00834407265
100.008173412242
100.011409414176
100.009567001103
100.011286488926
99.9997058189395
99.9991015505765
99.9934024054217
99.9961728834116
100.000198523394
100.000289585104
99.9964061858757
99.9941099122943
100.000109120313
100.000559513267
99.993527383254
99.9982718971407
99.9937755813327
99.9935132559908
99.9975916086252
99.9930802553014
100.000103201057
100.007627137881
100.005517716394
99.9988038592133
100.005247087666
100.007451870158
100.007603740505
100.005726923143
99.9995778337952
100.006650994891
100.008855308122
100.001372623759
99.9980796602582
100.030187103457
100.053011853274
100.052573388256
100.029250240202
99.9955250233763
99.9962177906366
100.089414788094
100.174676741839
100.112663601192
100.112446966404
100.097033205017
100.084051416106
100.071621597528
100.06784489025
100.062375923832
100.061076558233
100.073609080465
100.066507426949
100.066820974471
100.07433735673
100.062430782466
100.064001010217
100.069891620956
100.073621248128
100.085364596126
100.097678753351
100.191181167406
100.209068526236
100.208471731726
100.189836006161
100.189937820178
100.178382154533
100.201616908191
100.240730605433
100.153639096146
100.153527808819
100.203877155296
100.168035444568
100.193646588223
100.218539700787
100.159543252364
100.159863856434
100.21925557483
100.194653996429
100.169511029834
100.205548193725
100.154893508029
100.155582596202
100.204360723081
100.181421433081
100.191655477469
100.283192964363
100.32984259754
100.30006034746
100.298956651926
100.327389351761
100.298281460165
100.280565774876
100.404298926381
100.434540724547
100.389630447774
100.405775884857
100.403603634581
100.356849265886
100.29945178447
100.326722531299
100.275360032026
100.396351838652
100.430140642138
100.384809018193
100.384625851989
100.310970656074
100.311502684456
100.241131801021
100.290483736635
100.375131968389
100.420344175741
100.385352411335
100.391651484152
100.327569196033
100.280662870904
100.321450366304
100.302042838898
100.306916932818
100.331837870068
100.242313815614
100.242569761702
100.332131307461
100.307844592804
100.303290638791
100.322790799799
100.281977973163
100.329139154382
100.314649363737
100.31436276041
100.330470445155
100.302906007423
100.301368733893
100.360754259729
100.409519572622
100.392384666801
100.407204125073
100.43700663289
100.436401038603
100.405431448168
100.377502756065
100.378375777224
100.454343401529
100.475687428242
100.467259112146
100.466390272846
100.467579629104
100.453802622477
100.439702209927
100.481024765615
100.479495974777
100.477760142325
100.47267231439
100.466366496821
100.462797079601
100.44813119074
100.443350156372
100.444424806887
100.451454685076
100.422911324418
100.420980970211
100.421774608991
100.429179586079
100.451296143921
100.449522772263
100.430516033957
100.388813092823
100.397391940417
100.376414174096
100.410238871605
100.399106760959
100.399319399628
100.410815442834
100.377236983008
100.398116114407
100.390131298169
100.39315370472
100.388130305358
100.388278511015
100.388973814657
100.407535456781
100.447791008234
100.452000281098
100.456997913129
100.467950404681
100.479101955594
100.475925534291
100.482105212758
100.481508717793
100.475609929613
100.474270640723
100.474984630384
100.479172505686
100.475094501603
100.47773450049
100.477589115304
100.478719522115
100.474841546905
100.477202592534
100.475303925533
100.47333049415
100.4756657596
100.477850163453
100.475106437178
100.475966976147
100.47677960166
100.476187226446
100.4742687744
100.471184855496
100.466983441263
100.46733133878
100.459384588101
100.476357405777
100.476493740877
100.472854190204
100.472421278631
100.474844108029
100.468399480398
100.466608249906
100.469380769108
100.451549026695
100.452906246307
100.454565789033
100.469637483852
100.466498447373
100.465375137304
100.465732483952
100.448971549057
100.442975597095
100.44861413039
100.434461740863
100.434772109768
100.449127058995
100.443516307045
100.449209220702
100.430961114039
100.449777343331
100.451547661069
100.430749407884
100.424266383116
100.42430216796
100.427224353925
100.448810288222
100.464038109075
100.471362622597
100.470906550196
100.477329029073
100.482263333387
100.47847591135
100.483082507031
100.481541786595
100.478952652101
100.478598129904
100.477346173211
100.475881166219
100.476982218292
100.478063642816
100.476672434552
100.478794134301
100.479099963864
100.476613382565
100.475566919152
100.475279760366
100.474929007415
100.474451241767
100.472804066741
100.473384724649
100.473049918776
100.473762903263
100.474131556457
100.474718951954
100.476504318184
100.474940170483
100.474473236571
100.475939608982
100.475321056589
100.475820300291
100.475763003475
100.473889047352
100.475583856807
100.475547261077
100.476039981959
100.475552223467
100.477151060695
100.475191865719
100.476424809101
100.476831140316
100.475477035997
100.467843070976
100.46997914266
100.471532557338
100.472206534386
100.4745653241
100.468957054947
100.431326311075
100.427255476136
100.43102393286
100.442059055001
100.444267169785
100.434477819487
100.433040759333
100.429256104146
100.426268548987
100.421947299228
100.426041066111
100.418227905112
100.425620740432
100.444109600465
100.433220401128
100.436391890162
100.448368394208
100.47062828895
100.470211324475
100.473638478199
100.461768601089
100.464427487175
100.464612192532
100.465677714272
100.458312319019
100.448406417107
100.446677320976
100.425248482286
100.429973402718
100.435158533449
100.432793885352
100.425550232746
100.419996573773
100.431940084808
100.421864630753
100.421158882592
100.433574785257
100.438449343614
100.427870402589
100.42679516685
100.449967652411
100.481668516432
100.48228906723
100.469722867047
100.485593665198
100.467883704187
100.494032447458
100.476082431933
100.460823162255
100.464291520683
100.464736022309
100.468671798497
100.460658976804
100.464723580404
100.449867720921
100.431700678373
100.426519774084
100.43224637852
100.411147950006
100.418578672935
100.440505156489
100.43597847843
100.427512286347
100.422305886668
100.433905107805
100.424750741551
100.422191874762
100.432497829754
100.421659434569
100.423767711923
100.427402807009
100.430432572137
100.428752549855
100.451757180175
100.482868065523
100.483286469857
100.470964695257
100.487278627897
100.482995526727
100.438817914724
100.436174432474
100.43531003518
100.42876740301
100.437859204104
100.481774880518
100.479227872796
100.472885062812
100.485908695119
100.48055658906
100.461374360761
100.441784834077
100.461192948443
100.465245940133
100.463645414469
100.463899770006
100.464956349619
100.450142781296
100.431325333683
100.431777959232
100.432046072475
100.437414256866
100.43833086848
100.435466921085
100.438546301561
100.431767176447
100.422697401667
100.427727164043
100.438326376105
100.430982294932
100.442458886759
100.432224779803
100.431441092342
100.439252581773
100.427598002706
100.429389758017
100.424807191958
100.441146497756
100.44353534068
100.447251848147
100.443481225413
100.45414817242
100.474965786704
100.47314860878
100.476665770203
100.470396726731
100.496481321697
100.480707074464
100.430193370626
100.433866098128
100.432973137369
100.466337710083
100.465598166305
100.486672502135
100.482883949902
100.483275941684
100.465924832919
100.469364060141
100.46117807705
100.446725657157
100.424425407081
100.425468656563
100.431031646046
100.436961808629
100.437640920979
100.442834028882
100.443467876488
100.436457377961
100.436378372833
100.452612099698
100.446993609756
100.450851697552
100.450681402586
100.443895177699
100.439481543877
100.439310015051
100.439929541775
100.445920360131
100.445309208264
100.435903933022
100.441964658346
100.44671723496
100.435212111622
100.427596558905
100.427137767587
100.431545356207
100.438901513186
100.449486485834
100.469067067443
100.465418223597
100.463924739088
100.47896376509
100.48219354581
100.487813780065
100.474446330719
100.467180124432
100.466219711277
100.487347531642
100.461532850465
100.457869565551
100.465052895613
100.462563129845
100.456029051125
100.471227515323
100.472111708552
100.474052533345
100.474163038344
100.472414880702
100.471503212195
100.473227245338
100.475240214385
100.476223707553
100.476825996962
100.477510012522
100.478140196454
100.478479531433
100.478181641602
100.47677131311
100.475567298655
100.474519977955
100.478520528498
100.488786510452
100.517333939729
100.519846511889
100.467675459843
100.425471119613
100.381949320183
100.357058580055
100.375593219677
100.373432207327
100.371961811935
100.372481474144
100.373394812929
100.374280276463
100.375322238701
100.376635459811
100.378120118428
100.379580530849
100.38081105499
100.381653831135
100.382035150249
100.382005157971
100.381807335469
100.381450969879
100.380941642813
100.380271905438
100.379380326929
100.378266858219
100.376872177294
100.375148048761
100.37323107162
100.371348875299
100.369700670206
100.36842424006
100.367510178973
100.366950994156
100.366727986092
100.366804982215
100.367193561054
100.367944547828
100.369120837655
100.370688555741
100.372471045511
100.373823735153
100.374157809411
100.373970487039
100.373991715378
100.374056087606
100.3741977701
100.374443741414
100.374430721005
100.374552698348
100.374597486539
100.374850315586
100.375006907561
100.37520041847
100.375403544235
100.375417153395
100.375540171335
100.375414969354
100.375381051716
100.375313852276
100.375248237854
100.375174955181
100.375100177927
100.374980015393
100.374900081687
100.374762909602
100.374631938858
100.374483077953
100.374319601585
100.374112727097
100.374082180827
100.374031143466
100.374309084692
100.374455827821
100.374609883751
100.374739202761
100.374884043087
100.374976410093
100.375079388121
100.375164100897
100.375242008217
100.37530672703
100.375388015669
100.375489222857
100.37527579845
100.375139064244
100.374884385025
100.374740585455
100.374490017992
100.374486506995
100.374366903507
100.374382060016
100.374114265458
100.373993553088
100.373809910814
100.373896243796
100.37403445982
100.374303043911
100.374304261888
100.374413841202
100.374404298813
100.374651141459
100.374807459415
100.37508035085
100.375204359112
100.37514079253
100.375012585991
100.374706849164
100.374547888036
100.374325864236
100.374337872005
100.374235997844
100.374196986104
100.373956486473
100.373843879189
100.373665543468
100.373739512206
100.373878848747
100.374090387113
100.374151943727
100.374248753157
100.374249741774
100.374457564426
100.374597407214
100.374919431306
100.375081936817
100.375001327967
100.374828739479
100.374486799969
100.374367937552
100.374174449862
100.374132741151
100.374065461081
100.373998710717
100.373806321793
100.373709691334
100.373576892653
100.373600481077
100.373728537606
100.373896726794
100.3739522701
100.373945904993
100.374200351986
100.374242235888
100.374412168452
100.374736127744
100.374920742855
100.374833704549
100.374631356254
100.374284435198
100.374090586499
100.374025007012
100.37384157941
100.373861173848
100.373803772235
100.373660897441
100.373592219675
100.373530392774
100.373465117859
100.373584895207
100.373706876512
100.37375473146
100.373756837204
100.373905328423
100.373966811706
100.374132832343
100.374494907935
100.374717884774
100.374563272033
100.374344744964
100.373967862418
100.373842620233
100.373835155172
100.373723307956
100.373684249995
100.373642853168
100.373618084501
100.373522695458
100.373482026402
100.373441939875
100.373338563696
100.373450169476
100.373537378927
100.373564864394
100.373614444773
100.373641226067
100.373770535382
100.373890918198
100.374229822506
100.374430907555
100.374288266312
100.374088818947
100.373753281574
100.373635315603
100.373546061837
100.373523807955
100.373478197495
100.373467064249
100.373388155355
100.373359400277
100.37331569388
100.373223139551
100.373316264014
100.373393633621
100.373385603664
100.3734408628
100.373471176949
100.373537075464
100.373607514353
100.373941093047
100.374143145842
100.373911970643
100.373765679151
100.373475214998
100.373455578909
100.37337342502
100.37334372162
100.373306672229
100.373322313078
100.373254506844
100.373244973224
100.373183294605
100.373114209629
100.373177065944
100.373219277029
100.373217528025
100.373260824681
100.373282939449
100.373343468193
100.373332152441
100.373616541024
100.373762570936
100.373793827012
100.373663299892
100.373559910312
100.373554860457
100.373362630661
100.373261100513
100.373240382473
100.373121557707
100.373193497195
100.373153886563
100.373118651866
100.37311927773
100.373093985303
100.373032645782
100.372956934984
100.372901931431
100.372818467786
100.372899228211
100.373008285513
100.373000846355
100.373031683589
100.373034210306
100.373049865264
100.373078414792
100.373108808273
100.373044833412
100.373218726931
100.373306253719
100.373533784445
100.373421277588
100.373432513857
100.373368986302
100.373173517118
100.373004442343
100.373001842375
100.372934905858
100.373200007192
100.373130200703
100.373077326131
100.372969255451
100.372996772229
100.372967994244
100.372952264151
100.372916214282
100.372958910814
100.372932421752
100.372944038763
100.372828554645
100.372546062895
100.372813287219
100.37293305363
100.372890769478
100.372915296505
100.372901616491
100.37288565442
100.372900229631
100.372943314206
100.372923388002
100.373012828337
100.372985348861
100.372815548727
100.372831782289
100.372744486786
100.372766154877
100.37265948435
100.372754745974
100.372903407191
100.372811636312
100.372854761017
100.372863622621
100.372865819293
100.372865003342
100.372876613613
100.372855945486
100.37288053038
100.372765048204
100.37246555485
100.372779983909
100.372872618288
100.37283818549
100.372835282412
100.372829429223
100.372824540822
100.372817135652
100.372770800217
100.372717741804
100.372794735403
100.372756930592
100.372763335612
100.372757450146
100.372971917064
100.37295286114
100.373031345924
100.373103779204
100.373183231998
100.373233860517
100.373284040593
100.373325230924
100.373375364407
100.373441124059
100.373529609275
100.37362862718
100.373716439895
100.373811613348
100.37392047198
100.374013668788
100.374110473372
100.374208828406
100.374312733151
100.374400203922
100.374638763958
100.374734612898
100.374995990492
100.375067879666
100.375291950948
100.375467414806
100.375452691808
100.375622068554
100.375546624746
100.375455198204
100.375452001359
100.375219881287
100.375098384995
100.37504350335
100.374907698844
100.374809055048
100.374710262927
100.374610517144
100.374482028676
100.374378932648
100.374272274459
100.374156444894
100.373996267855
100.373891420751
100.373771428684
100.373881588347
100.373867852825
100.374127285204
100.374289690073
100.374429083542
100.374517569124
100.374632699744
100.374770641218
100.374865709822
100.374943714066
100.375043770068
100.375154088538
100.375231136956
100.375290452898
100.375436786089
100.375570756407
100.375602170634
100.375484861084
100.375279379651
100.374940741353
100.374518279755
100.374633567936
100.374723308825
100.37505518945
100.375357063549
100.375531114034
100.375650930378
100.375604071199
100.375507952059
100.375347483915
100.375086744791
100.374727593737
100.374642363186
100.374561744714
100.374360113675
100.374218541713
100.37387603232
100.373690929281
100.373550608863
100.373394953602
100.373267680396
100.373096221088
100.372972681565
100.372840028373
100.372703526093
100.37255152668
100.372771930585
100.373078020224
100.373268746285
100.373353985022
100.373482513551
100.373617112469
100.37377190309
100.373869117514
100.374019264915
100.374141297388
100.37432024032
100.374679369001
100.374693272535
100.374872255505
100.375014899588
100.375314090385
100.375125682466
100.375047949031
100.375202023775
100.375007670194
100.374765621145
100.37422030776
100.374089815992
100.374283332421
100.374502478879
100.374498634252
100.374544664701
100.374684614791
100.374774720589
100.374868413559
100.375108395623
100.375401744309
100.375571175002
100.375681372652
100.375655580545
100.375545094967
100.375317132703
100.375074509964
100.374978857629
100.374756155895
100.374443655938
100.374020548021
100.37393894912
100.373768666224
100.373519414012
100.373311508913
100.373156971155
100.372985771337
100.37277277675
100.372573011074
100.372378663454
100.372253535519
100.372061450178
100.371890883739
100.371666301355
100.37149901983
100.371366054744
100.371282146632
100.37107954061
100.370906291768
100.371043559766
100.371467225173
100.37168204678
100.37179568207
100.371789046466
100.371907562935
100.372045849026
100.372237445307
100.372384620191
100.372570728869
100.372702863669
100.372878452175
100.373041763126
100.373275070596
100.373540118319
100.373694019435
100.3740543608
100.374081992256
100.374269609315
100.374065055759
100.374338238659
100.374596601329
100.374620553517
100.374591896329
100.374205608589
100.37424553202
100.374279223393
100.374288252414
100.374479917204
100.374661892047
100.374646895751
100.374818044623
100.374814323996
100.374953022227
100.375161702356
100.375461585599
100.375613933591
100.375733853421
100.375669536856
100.375675166805
100.375630481544
100.375448338805
100.375165690992
100.374834424195
100.374514956499
100.374116360958
100.373649299052
100.373457111849
100.373370663034
100.373162611227
100.373050941559
100.372905742979
100.372750810942
100.372599061588
100.372474050347
100.37222528332
100.372163933295
100.371959342296
100.371760224553
100.371601526378
100.371335996493
100.371096005675
100.370862123808
100.370703021713
100.370501287995
100.370718466185
100.371002990278
100.37125092073
100.371478889639
100.371720103972
100.371829289841
100.372012084381
100.372215495026
100.37242489347
100.372522373935
100.372705839171
100.372898356086
100.373123701799
100.373262347963
100.373518278201
100.37349830125
100.373255483928
100.373498927424
100.373642265757
100.373888072327
100.373792515441
100.373894636121
100.374979169317
100.374800699513
100.374663951233
100.374240756836
100.374193387941
100.37444373086
100.374478904948
100.374721082978
100.374689888408
100.374821372162
100.374842361353
100.375171683401
100.375363864488
100.375639877125
100.375797505502
100.375722968477
100.375785345507
100.375717773986
100.375666167006
100.375459948752
100.375228574148
100.374824856642
100.374556101187
100.374363723911
100.374134217776
100.373879917959
100.373583097629
100.373248299825
100.373238703386
100.37315908422
100.373014065628
100.373057063442
100.372870493984
100.372735770879
100.372646500592
100.372506600193
100.372646758012
100.372434352782
100.372223821174
100.372074413253
100.371889458399
100.371683435147
100.371401146646
100.37113598852
100.370876891588
100.37059430745
100.370261165479
100.369900563984
100.369550411764
100.369084488203
100.36935895392
100.369794861838
100.370181721439
100.370399894822
100.370629456152
100.370887612856
100.371144335744
100.371428567372
100.371602739093
100.371786844206
100.371993242782
100.372300657434
100.372487868142
100.372454311864
100.372491578357
100.372635878507
100.372782270646
100.373045349601
100.373134233729
100.373118921885
100.37297231444
100.372928929011
100.372968971252
100.372965508899
100.37296727155
100.374090882921
100.371341336643
100.370162104984
100.369531044054
100.36866663686
100.367974945678
100.367474339508
100.367047712718
100.366819234182
100.366515004691
100.366056085148
100.365413338441
100.362809212624
100.360858596456
100.365139364872
100.365684582926
100.36615431792
100.367090073647
100.368404288602
100.369219069951
100.369877753852
100.370380696292
100.370807231993
100.371196483465
100.371408380104
100.371732297308
100.372394130192
100.371068612029
100.372991067276
100.370269399122
100.37397220104
100.373821733613
100.374199527333
100.374365520019
100.374502967669
100.374567347043
100.37478995376
100.374785724641
100.374202949031
100.37327038933
100.37215855738
100.370591976113
100.368770465156
100.367881697843
100.370500237244
100.371819323388
100.369116203071
100.365345220259
100.362690910007
100.361731747191
100.35094015913
100.354689117528
100.353830764471
100.357582415896
100.359022539421
100.361000888654
100.3636922766
100.362593583413
100.359464317284
100.359789718397
100.358260677536
100.360444835405
100.362094398467
100.362578479053
100.363241826252
100.364399301573
100.364384554803
100.36737733823
100.368736849561
100.370077357396
100.371709119814
100.372638391378
100.372767357173
100.372844469475
100.372780273855
100.373254787078
100.373442909341
100.373596501972
100.373700297207
100.373817792677
100.373978226904
100.374184973897
100.374389040377
100.374249991053
100.373995009331
100.374247932967
100.374214203882
100.374361605204
100.374534338736
100.374335885682
100.37442536906
100.374639212599
100.37474146896
100.374700306579
100.374767115175
100.375051472671
100.375252146227
100.375516396628
100.375661192348
100.375785929157
100.375809357778
100.375612592045
100.375382974022
100.375079522723
100.375158024041
100.375288005056
100.375570593231
100.375712280404
100.375765294438
100.375768589563
100.375664424739
100.375500200964
100.375452204901
100.375402780626
100.375219786345
100.374975001391
100.374614675978
100.374170589691
100.373960833177
100.373792764421
100.373657347316
100.37345752965
100.373353189647
100.373169177681
100.37334623906
100.373249578713
100.373402429733
100.373344221385
100.373240150219
100.373079832555
100.37324526483
100.373104329703
100.373016514745
100.372880871488
100.372736405192
100.372563254697
100.372361712519
100.37247205274
100.372240208077
100.372032423707
100.371817973105
100.37157803692
100.371300879254
100.371023310994
100.370524956175
100.37077454138
100.371117662011
100.371384586137
100.371623140959
100.371858010405
100.372079757216
100.372311808634
100.372144196501
100.372186171823
100.372380770131
100.372567263094
100.372790448545
100.372906659083
100.373075462389
100.372898876777
100.372957719895
100.373140745399
100.373217155535
100.373168075502
100.373101872302
100.372928329049
100.372716836363
100.372387985242
100.372361244696
100.372410556295
100.372802010832
100.373069226721
100.373497589012
100.373819095125
100.374149654571
100.374456789095
100.374628354776
100.374420970518
100.374480983473
100.374604544038
100.374827820946
100.374787570068
100.374929157264
100.375002085445
100.375244724597
100.375603219205
100.375473914422
100.375601839653
100.375674500597
100.375583155912
100.375592519588
100.375533775733
100.375321479724
100.375075458549
100.374956070909
100.37467937326
100.374318499102
100.374056025707
100.373668147815
100.373563026618
100.373443460775
100.373425403223
100.373370087731
100.373439710863
100.373354165218
100.373588689935
100.373462407272
100.373648982306
100.373552424474
100.373535347957
100.373356890922
100.373457429843
100.373335482076
100.37325121239
100.373173146756
100.37307987613
100.372878611133
100.372863458813
100.372694647761
100.372511478275
100.37230126607
100.372092682641
100.371875044216
100.37160766986
100.371317396682
100.371014897721
100.370682935427
100.3702826549
100.369908223209
100.370266839139
100.370657485986
100.370857249595
100.371173984138
100.37147005455
100.371731162387
100.371956793698
100.372187713652
100.372412393715
100.372673768769
100.37285881728
100.372736795891
100.372834527329
100.372961981205
100.373041432592
100.373165030896
100.373365221243
100.37324505154
100.373252122051
100.373320270041
100.373490607597
100.373359282009
100.37332695254
100.373072816172