/*--------------------------------*- C++ -*----------------------------------*\
| =========                 |                                                 |
| \\      /  F ield         | OpenFOAM: The Open Source CFD Toolbox           |
|  \\    /   O peration     | Version:  v1612+                                |
|   \\  /    A nd           | Web:      www.OpenFOAM.com                      |
|    \\/     M anipulation  |                                                 |
\*---------------------------------------------------------------------------*/
FoamFile
{
    version     2.0;
    format      ascii;
    class       volScalarField;
    location    "0.8";
    object      p;
}
// * * * * * * * * * * * * * * * * * * * * * * * * * * * * * * * * * * * * * //

dimensions      [0 2 -2 0 0 0 0];

internalField   nonuniform List<scalar> 
80212
(
100.335773720289
100.335160770704
100.335113134602
100.337871120017
100.341421959575
100.341397031711
100.341712997942
100.341633569201
100.34215435927
100.343664427979
100.34299077878
100.342027410731
100.342341286735
100.343461418171
100.344083519859
100.342307601672
100.341736895823
100.34172311265
100.341405844992
100.341421914093
100.341990964251
100.342219714138
100.343099511518
100.344854443741
100.343261899349
100.341195219716
100.340247520189
100.340069888326
100.340503338071
100.340872409335
100.343477951698
100.343268218884
100.34252336946
100.342139228325
100.340707527397
100.34100446641
100.341730058601
100.340948203789
100.34239887975
100.344367199633
100.344288089097
100.342313333954
100.340897662504
100.34171093839
100.340990629515
100.34068813439
100.342112964432
100.342498723891
100.343233860746
100.343466306617
100.340864054586
100.340498566641
100.340072528446
100.340251184009
100.341198846645
100.343265187043
100.34485628269
100.343100697277
100.342225711703
100.341997592547
100.338905438418
100.33922237921
100.338677214532
100.338920317162
100.338660290065
100.338565306317
100.338130392674
100.337867004288
100.338361270836
100.338310285316
100.338664419178
100.3385798834
100.338368488796
100.338894005956
100.338202950471
100.337753414794
100.338000201982
100.337985679239
100.338059431807
100.337789597485
100.337783462401
100.338053107439
100.337978068702
100.33799866916
100.337770769742
100.338243215968
100.338935269828
100.338405324881
100.338602580488
100.338675024868
100.338312450699
100.338360888847
100.33786319215
100.338129604668
100.338562128384
100.338653336581
100.338915348486
100.338672308953
100.339213956917
100.338897518303
100.337874507887
100.337964699419
100.339146696127
100.33956608496
100.339008759708
100.339645780221
100.339134200072
100.338893066955
100.3390551147
100.33943776028
100.339825191053
100.339065388189
100.339601919939
100.339170778792
100.337974173235
100.33520449479
100.336794926592
100.334348413395
100.33443122756
100.334574648489
100.337291908677
100.335614460503
100.33364249849
100.334704722797
100.335655762549
100.335774746698
100.33548066716
100.336413336263
100.336604873755
100.335495510654
100.33582807054
100.335719887227
100.335676245265
100.335387736371
100.334252135998
100.33363510477
100.335480549544
100.334824115538
100.33386457775
100.333854973437
100.334827656828
100.335456760195
100.333612369555
100.334256559082
100.335444256923
100.335737216501
100.335777679208
100.335862616365
100.335507338374
100.336604210636
100.336411896665
100.335478451616
100.335772696308
100.335651743606
100.334699695457
100.333634867754
100.335608880949
100.337280481783
100.33645328936
100.335111270266
100.335177022599
100.336742998762
100.337886916685
100.336045259877
100.334139940579
100.334896041429
100.335705914583
100.335799268268
100.335089457732
100.334325504475
100.33619757844
100.337978946557
100.33435913438
100.325181564959
100.325741718085
100.325888667245
100.325449428218
100.326295253075
100.334647380595
100.335031966895
100.335064224977
100.335907643253
100.337612003196
100.335016579546
100.334224344899
100.333038036637
100.336255169054
100.33398760841
100.333429118774
100.332095977416
100.333247941736
100.332732115263
100.336654349006
100.336699439448
100.33276138288
100.333336027636
100.33246145352
100.333576515085
100.332052806237
100.334653013734
100.335165328702
100.335685708346
100.334129247742
100.336379465358
100.333073790322
100.334222700137
100.335015723181
100.334637001781
100.334559112787
100.334418050594
100.33435007112
100.334368419659
100.334163560836
100.334135995727
100.326083965803
100.324557423653
100.324268504538
100.324545797859
100.324583349419
100.324356759576
100.32472422078
100.324825359057
100.326185317107
100.326070961771
100.326263919074
100.327300889114
100.332449875063
100.331844496891
100.328483217712
100.326809081022
100.325724238249
100.325820187436
100.327662805426
100.327207021325
100.327173854021
100.327588974256
100.32720622472
100.326188831685
100.326035524996
100.326165830963
100.326287635209
100.325445057608
100.325890410918
100.325754151352
100.32521081737
100.326117775098
100.324563256562
100.325115759388
100.325116333145
100.325093585255
100.325225807471
100.325246680268
100.325186445464
100.325310746492
100.325429982326
100.325617665959
100.325005878645
100.325324967183
100.325585281649
100.325637207793
100.325624987119
100.325920400315
100.326176756591
100.326127910148
100.325700102151
100.325604891435
100.325246182738
100.324965754548
100.32480345436
100.324711358345
100.324347412052
100.32458782203
100.324546460902
100.324265265277
100.325079158279
100.324915373209
100.324918517944
100.324919976575
100.324917799713
100.325031330568
100.325061457436
100.32506001274
100.325151726353
100.325171133647
100.32531260979
100.325201350038
100.325182846018
100.325144441731
100.325256447541
100.32526194181
100.325907794407
100.325547790373
100.325554779758
100.325544478694
100.325604192865
100.325419650993
100.325301404102
100.325184073503
100.325239938592
100.325216238257
100.325028581522
100.323976212567
100.32388242609
100.323900507277
100.32390087405
100.323882861306
100.323977673434
100.324023228538
100.32403954
100.324170622398
100.324179095126
100.324271621086
100.324219107005
100.324254342929
100.324240819044
100.324297493741
100.324307533962
100.32426814283
100.324296431707
100.325199121203
100.325198519758
100.325306757117
100.325169632382
100.325145029593
100.325057957539
100.325053531804
100.324015204783
100.32280608205
100.322742259687
100.322660195303
100.322678562343
100.322679696499
100.3226640083
100.322747405831
100.322812092249
100.322861287446
100.323030424356
100.323082682538
100.32318856267
100.323200017042
100.323291431321
100.323315651047
100.323366744908
100.323358441059
100.323302463726
100.323280685631
100.323188724449
100.324233903136
100.324281105192
100.324169840794
100.324167451
100.32403939507
100.322854025287
100.321714731228
100.321629763573
100.32153442976
100.321436235515
100.321447739814
100.321450724641
100.321444594227
100.321546832051
100.321643917051
100.321729424165
100.321962147091
100.322071457544
100.322221904897
100.322282455006
100.322427466452
100.322484573729
100.322553116951
100.322552332884
100.322474993078
100.322412036823
100.322278346719
100.322222021528
100.322063196673
100.321947576038
100.320824747488
100.320511290332
100.320373728353
100.320224073539
100.320080689511
100.320086943409
100.320092441158
100.320097550693
100.320248823142
100.32040271862
100.3205426862
100.320847519777
100.321052349607
100.321268767985
100.321396993912
100.321606559433
100.321706549152
100.321831341608
100.32186065218
100.321787837256
100.321676412626
100.321422052291
100.3212654998
100.321035864581
100.319832815885
100.319481944115
100.319015862192
100.318840545274
100.318602036947
100.318378702242
100.318392264269
100.318403027939
100.318411209287
100.318647571776
100.318892087648
100.319068665848
100.319525068085
100.319866015966
100.320184820001
100.320423184157
100.320774347543
100.320905650548
100.32116379823
100.321204449345
100.321015437117
100.320863554562
100.320459749422
100.320172945023
100.318744233734
100.318258213935
100.317674526667
100.316896415537
100.316762449754
100.316407728326
100.316062046462
100.316113232945
100.316134794271
100.316122923312
100.316481991845
100.316858734732
100.31698482034
100.317750836337
100.318315759619
100.318781238297
100.319232538581
100.319870496938
100.319935482234
100.320462433266
100.320476463362
100.320002315554
100.319898213147
100.31923100093
100.31753780207
100.316465842691
100.315734439517
100.314955867686
100.3135850662
100.313568568554
100.313096064191
100.312413193148
100.312696048314
100.312727148385
100.312522207258
100.313237438678
100.313742185786
100.313742626669
100.315098688226
100.315836559018
100.316535419772
100.317583218638
100.318740848705
100.318525014789
100.3195839884
100.319590602012
100.31850899048
100.318709009784
100.317811768622
100.315152336888
100.311326135833
100.311001395178
100.309994442066
100.307399191292
100.307734218086
100.30721465809
100.305704093031
100.306812937968
100.306866638539
100.305912933099
100.30748566336
100.308055671389
100.307722138372
100.31022341596
100.311164455305
100.311418769949
100.315234007466
100.317823974599
100.316510665928
100.318823982816
100.318829826297
100.316443174238
100.315117685171
100.310349675454
100.304484262862
100.30275884968
100.304804155453
100.303224109091
100.298532594858
100.299477354458
100.299063215897
100.296181175774
100.298603906854
100.298696884777
100.296507310095
100.299455782424
100.300108312777
100.299063203338
100.303591483375
100.305084514325
100.302872670609
100.304601007271
100.310455578985
100.315159915516
100.31125104482
100.309973404537
100.309917084351
100.311140656244
100.326055173125
100.326897131003
100.324228828404
100.317990985198
100.317055801826
100.313840890373
100.309376153962
100.309519363281
100.309173861417
100.306562002819
100.307838307626
100.307896148279
100.306889030225
100.309566304408
100.310296910401
100.310022195301
100.314348122655
100.317395582721
100.318155141589
100.324323182299
100.326944518254
100.326025410323
100.33144424976
100.331442006598
100.371524027363
100.367507798839
100.362847961931
100.360688613874
100.354119961477
100.349137181991
100.34387823056
100.345296143242
100.338857528515
100.339713239428
100.338890372936
100.348518537116
100.366801328773
100.367554338833
100.349485634999
100.334055618805
100.33364579743
100.381930792454
100.418296082717
100.399391339212
100.400663287688
100.409439079231
100.39933561313
100.383271589652
100.340081427998
100.340789021317
100.340034851908
100.346310177914
100.344456722388
100.349437625485
100.354259325381
100.360708740806
100.362816981924
100.367390972662
100.371453516707
100.4136773788
100.413830257127
100.429197903611
100.417630067589
100.408338513292
100.403220355714
100.399071358817
100.405549096103
100.3859651175
100.379953519336
100.394744493303
100.382536113522
100.390805345172
100.393262509945
100.39682497829
100.406570746554
100.439516794732
100.434907133754
100.436363420246
100.443673943263
100.428453961189
100.428683221485
100.429374875299
100.392678230049
100.379400397044
100.395742188034
100.431769260801
100.4515345505
100.466048611795
100.473547212817
100.478063940711
100.482320106617
100.484489256834
100.485555107108
100.486191809192
100.486577860628
100.486847557577
100.487095784722
100.487188629619
100.48708558914
100.486800679969
100.486424615517
100.486065522991
100.485895696647
100.486161839593
100.487067633743
100.489026147722
100.492914916196
100.499513734883
100.510702812161
100.522266079391
100.541455267248
100.530468596827
100.480600355114
100.432437236444
100.38187305247
100.354198830334
100.371898672356
100.372572788869
100.370435236748
100.370403344373
100.371412092529
100.372537712348
100.373729642298
100.375141114902
100.376728542615
100.378281530382
100.379569242128
100.380449541468
100.380856770988
100.380450365366
100.379877561045
100.379076569019
100.378042986201
100.376767441057
100.375199803775
100.373360383589
100.371396681322
100.369474489565
100.367760624653
100.366334436768
100.365197837842
100.364329660219
100.363722580611
100.363430767181
100.363508168102
100.363994799846
100.364914439122
100.366299317044
100.36803014401
100.369750311473
100.371005371781
100.371484480946
100.371482145084
100.37154910879
100.371528415209
100.371535772655
100.3715464272
100.371563468238
100.371585297916
100.371607390641
100.371701703435
100.371779914795
100.371792412337
100.371830523641
100.371827013188
100.371668514524
100.371590140455
100.371603149075
100.371540631691
100.371651381758
100.371638470856
100.371554151636
100.3715485535
100.371530943086
100.371509355894
100.371517246584
100.371490674072
100.371488145346
100.371505467025
100.371458148675
100.371341541416
100.371397608015
100.371463161019
100.371458667082
100.371459282961
100.371476252177
100.371500338256
100.371508208662
100.371491215753
100.371585426044
100.371430187307
100.371471337127
100.37152002304
100.371441627799
100.371388794465
100.371455781153
100.371453127648
100.371422885361
100.371409391504
100.371401617542
100.371395003987
100.371309869558
100.371301357898
100.371008638089
100.37043323564
100.370999009129
100.371279904397
100.3712580739
100.371334039606
100.371339544515
100.371358503676
100.371381326822
100.371414113724
100.371377650723
100.371440895101
100.371450303499
100.371412675339
100.371209197699
100.371146032285
100.371245585666
100.371223240368
100.371185701147
100.371323370497
100.371228160692
100.371297042404
100.371378849259
100.37140408727
100.371344791286
100.371349360975
100.371315706875
100.371303905484
100.37128323506
100.371274511621
100.371193063221
100.371208337935
100.370950576548
100.370266334123
100.370943410434
100.371175798102
100.371152415943
100.371222471612
100.371231544115
100.37123420782
100.371292076261
100.371304896281
100.37128360406
100.371365014934
100.371338304946
100.371220480918
100.371241902219
100.371351726935
100.371249892672
100.371283771267
100.371224113987
100.37131862189
100.371235909588
100.371260563491
100.371247771598
100.371184583664
100.371206198359
100.371174638878
100.37115696456
100.371105151794
100.371101751424
100.370898427552
100.370281838636
100.370928144595
100.371079017483
100.371079567822
100.371111118432
100.371140348446
100.371158298063
100.37119127653
100.371210422979
100.371169415804
100.371188324126
100.371139214799
100.371224857263
100.37132200157
100.371129917196
100.371032687107
100.37108386972
100.37117054646
100.371070001939
100.371260665179
100.371194655334
100.371103110798
100.371091119762
100.371154948128
100.371123860014
100.371103987399
100.371073936409
100.371054908455
100.371042363156
100.370910773525
100.370346375201
100.370996502331
100.371027581938
100.371045281551
100.371046126394
100.37106585498
100.371070401123
100.371117328872
100.371086026902
100.371055898727
100.371037048604
100.371074162504
100.371040376437
100.371081901589
100.371155039227
100.371088589886
100.371047935281
100.371022263437
100.37103621134
100.370978426869
100.370946970369
100.370569321607
100.370313907074
100.370567795295
100.370489698738
100.370835564058
100.370710478719
100.37092584042
100.371018928898
100.371016930617
100.371059600239
100.371087642071
100.371035845803
100.371022707779
100.371055935058
100.371053266789
100.371022281234
100.371013580171
100.37097484887
100.370918719049
100.370010828473
100.368515745808
100.370329681675
100.371007487533
100.3709592218
100.371017854709
100.3710188922
100.371049103598
100.371036244923
100.371008369406
100.371080242038
100.371084322617
100.370994993188
100.370998403454
100.370974223795
100.370854693275
100.370692441165
100.370948824213
100.370991401841
100.371034927636
100.371028045522
100.370978574853
100.370831170899
100.370539290827
100.370202983309
100.370223626316
100.370684330814
100.370588240298
100.370875316011
100.371008193996
100.371071836107
100.371049889343
100.371151011621
100.37107442533
100.371019527562
100.371003310272
100.371036469524
100.371003656977
100.371018064093
100.370952122829
100.370988801111
100.370443348718
100.368711036153
100.37071552528
100.371028330951
100.370993770888
100.371026389835
100.371045872433
100.371062901236
100.371043914216
100.371022036488
100.371004443861
100.370895887522
100.37023958411
100.368490651971
100.366608504843
100.36909667821
100.37054181353
100.370950285373
100.371039472534
100.371054003767
100.371065835292
100.371054998643
100.371121751847
100.37119211883
100.371100849924
100.371101694681
100.371033506918
100.370883408926
100.370627614733
100.370970624956
100.371085105746
100.371136226726
100.371190514057
100.371119235713
100.370895840218
100.370604558824
100.370049877708
100.370705818754
100.370848304633
100.371196392188
100.371072704938
100.371266450692
100.371321435677
100.371258881033
100.371315407659
100.37125451602
100.37115791775
100.371080792548
100.371108858946
100.371142999766
100.371086822921
100.371092316951
100.371028801485
100.370726219128
100.369422339615
100.367332705006
100.37010729605
100.370998736875
100.371139997349
100.371173094826
100.371153159107
100.371198213438
100.371246280438
100.371323863642
100.371216721431
100.371411647448
100.371483470248
100.371442216878
100.371414468549
100.371232216235
100.370886491403
100.37030796947
100.370983971313
100.371114086758
100.371435840507
100.371347165429
100.371529848871
100.371569570374
100.371433467969
100.371523218948
100.371348606562
100.371387388605
100.371301641327
100.371239217127
100.371233590642
100.371089799329
100.370600936419
100.36951022955
100.367577393215
100.366357108235
100.368781528521
100.370240681209
100.37093867244
100.371225435671
100.371321857899
100.371334149491
100.37146050938
100.371337962505
100.371596535924
100.371661356251
100.371639900503
100.371616896169
100.371447944468
100.37102678401
100.370429388602
100.371084613628
100.371511098064
100.371559444005
100.371652538234
100.371681725474
100.371734367926
100.371611851716
100.371638765653
100.371471102652
100.37152531005
100.371400262079
100.371418251661
100.37131640485
100.371173015362
100.37067700153
100.369326168079
100.367685994819
100.37032023129
100.371134529601
100.371331576627
100.371446611905
100.371451296816
100.371584606745
100.371437202119
100.37173688304
100.371673722254
100.371730247861
100.371554093507
100.371721600867
100.371673437261
100.371498025035
100.371099054191
100.370321775321
100.370928225162
100.371353037244
100.37157549002
100.371637703347
100.371624428239
100.371552173744
100.371303645591
100.370868708272
100.370157480693
100.370742948595
100.3709210992
100.371258179903
100.371311118495
100.371510500399
100.371597948468
100.371502865524
100.371609751433
100.371660979681
100.371501029826
100.371450889914
100.371529429929
100.371600307436
100.371479595746
100.371421469272
100.37129254461
100.370961766215
100.370147518752
100.368347388756
100.367428357745
100.369997012002
100.370935114354
100.371224980551
100.371381849375
100.371488152577
100.371481999983
100.371560170148
100.371519709044
100.371552279533
100.371457386038
100.371626532513
100.371575600471
100.371611547267
100.371464797377
100.371555123327
100.371466041539
100.371267531461
100.370926129645
100.370239491207
100.370851882529
100.371221587674
100.371427539547
100.371511408681
100.371498918486
100.371434081528
100.371229890023
100.370911175077
100.3703234528
100.370839797053
100.371074432437
100.371265803003
100.371344037791
100.371464666337
100.371527574867
100.371478584457
100.371556338671
100.371560377854
100.371472170122
100.371439810785
100.371503426875
100.371471738978
100.371467674728
100.371365907239
100.371185871259
100.370825023952
100.36995587567
100.368209677912
100.367706228333
100.36990070172
100.370842430759
100.371174122803
100.37139575657
100.371466396388
100.371464985714
100.371559244618
100.371523134967
100.371463770277
100.371485120059
100.371458201718
100.371452298946
100.371202577465
100.370548737223
100.369780879876
100.371188894949
100.371439777
100.371482370903
100.37149883926
100.371483593698
100.371539358597
100.371446084586
100.371582569369
100.371562542925
100.371588669598
100.371481805434
100.371534906468
100.371481437816
100.371367528877
100.371082245193
100.371216553466
100.371407571016
100.371481669183
100.371539872705
100.371487106551
100.371341418765
100.371070594467
100.370706394877
100.370976728414
100.371266630945
100.371419576742
100.371476442811
100.371496380006
100.371557198661
100.371466188478
100.371530397884
100.371553536723
100.371498957918
100.371517126447
100.371497592421
100.371494749516
100.371296945911
100.37046703987
100.370262026516
100.37130777124
100.37152276678
100.371547557137
100.371546583239
100.37153472838
100.371579728045
100.371485530618
100.371597627299
100.371560360436
100.371511831036
100.371479843931
100.371345423995
100.371109844114
100.370736051699
100.371020937789
100.371276148438
100.371423179915
100.371467125781
100.37153201077
100.371530197304
100.371531672015
100.371551039301
100.371588043188
100.371557974523
100.37157433792
100.37157850173
100.371618096291
100.371486036282
100.370842520015
100.370957491009
100.371572306523
100.371602184648
100.371615746392
100.371604205815
100.371592290661
100.371569666562
100.371580008393
100.371528998413
100.371572488957
100.371506422691
100.371470870886
100.371344288348
100.37116853925
100.370812174668
100.371107545245
100.371319857307
100.371454872939
100.371483066128
100.371538406517
100.37157640007
100.371521006873
100.371488705409
100.371374354748
100.371254874971
100.370958143219
100.371186133111
100.371380964637
100.371485914796
100.371507756723
100.371561349989
100.371548860978
100.371569101937
100.371603121256
100.371597992511
100.37162252924
100.371646688255
100.371657133725
100.371670885297
100.371715429285
100.371284826592
100.371521123578
100.371711831774
100.371717366891
100.371711399592
100.371680957986
100.371647381925
100.371617024386
100.371608998012
100.371570228523
100.371587096882
100.371527770658
100.371510223263
100.371453660642
100.371392475037
100.371185362743
100.371362507584
100.371460715251
100.37151162894
100.371537819427
100.371590822582
100.371617903253
100.371557906993
100.371557044397
100.371548767876
100.3715558047
100.37141771269
100.371538678755
100.371566889024
100.371585085153
100.371572288844
100.371629512265
100.371602559395
100.371615081896
100.371631102585
100.37164694122
100.371687142765
100.371706546417
100.371735115251
100.371781255554
100.371806519027
100.371712810289
100.371867768699
100.371274876267
100.369782778667
100.370344086139
100.368572606003
100.369358113985
100.367450191205
100.368467351876
100.366579139048
100.365274699244
100.366080538979
100.365076587295
100.366019333477
100.365161372463
100.364662989427
100.365555206385
100.365082354142
100.364836869954
100.366279486186
100.366220594269
100.366316336626
100.368401649825
100.368530464968
100.368698402089
100.368964896721
100.369300658484
100.370623143644
100.370352790871
100.370761754503
100.371115726005
100.371313241484
100.371592080321
100.371559046601
100.371618135483
100.371623475302
100.371650792234
100.371658548463
100.371694694119
100.371719124787
100.371822098231
100.371926939178
100.372052574143
100.372122753946
100.372125183531
100.371981064922
100.371915650062
100.371743845947
100.371511627533
100.371409846277
100.371477980806
100.371530983991
100.371762783872
100.371555845961
100.371444372295
100.371384553994
100.371248985733
100.371001202223
100.370589092013
100.370272113893
100.370462046082
100.370589033569
100.370493481037
100.370381802683
100.370654632139
100.370666819358
100.370779696152
100.370827263343
100.370798424658
100.37095790175
100.371198070522
100.371235723175
100.371386850412
100.371302890246
100.371425540089
100.371291736997
100.371347236065
100.371392954198
100.371433766225
100.371500099964
100.371543701521
100.371573388968
100.371593065329
100.371607696706
100.371619419582
100.371622352137
100.371680825706
100.371804431348
100.371916717839
100.37198492775
100.371996901119
100.371836741863
100.371712885248
100.371545022663
100.371564752862
100.37158887775
100.371558330268
100.37158395735
100.371754853686
100.371796007915
100.371915854979
100.372023108772
100.372153609897
100.372250942579
100.372262979547
100.372206146046
100.372037258968
100.371828323996
100.37167361611
100.371311449356
100.37090568482
100.370481240961
100.370604581711
100.370724018067
100.370654013447
100.370516395331
100.370437102366
100.369695646525
100.369258636628
100.369076958426
100.369004156463
100.368841979097
100.369109602275
100.369367761149
100.369543730695
100.369612755227
100.369294380016
100.369695921066
100.370030408522
100.370152342859
100.36999066458
100.371269057573
100.371416030705
100.371356091863
100.37142941144
100.371440751754
100.371522157912
100.371565037588
100.371564131445
100.371583696763
100.371577115069
100.371619090134
100.371632361643
100.371647916987
100.371666941376
100.371693460699
100.371702484473
100.371760747199
100.371816120775
100.371860511587
100.371989825087
100.372126832038
100.372294633609
100.372399940583
100.372413850482
100.372391136037
100.372223114898
100.371999298034
100.371637586055
100.371212538614
100.370761470448
100.370621251039
100.369908691524
100.369546151325
100.369431323206
100.369334689886
100.369230288819
100.368976851535
100.369035597104
100.369357944199
100.369628842042
100.369675980477
100.369797722632
100.369503745608
100.369893922179
100.37013788036
100.369932730843
100.370674999156
100.371174372206
100.371593322921
100.371667339873
100.371642005638
100.37160513266
100.371672354591
100.371708091677
100.371742766576
100.371799817254
100.371820629369
100.371876343641
100.371912149167
100.372081903895
100.372252098016
100.372423157698
100.372538266131
100.372563630503
100.372533569939
100.372363729628
100.372121654781
100.371765494761
100.371337000221
100.370853166559
100.370159283766
100.369849803865
100.36973053457
100.369350080741
100.369083212033
100.368973651079
100.368818397499
100.368622564084
100.368844590548
100.369129727337
100.368861393873
100.368737290313
100.368534585007
100.368276499765
100.368031158391
100.367838285995
100.367674126225
100.36760573052
100.367824116692
100.368099136604
100.368306279742
100.368555372019
100.368731302951
100.368375809635
100.368474535508
100.368778329004
100.368841382131
100.369737003501
100.370423877622
100.371251646715
100.371564654203
100.371589034808
100.371629138353
100.371634147872
100.371748624325
100.371624557984
100.371675168759
100.371706226624
100.371752128005
100.371796864188
100.371851522585
100.371867497369
100.371938159216
100.372006430655
100.37221479858
100.372401100226
100.372571876333
100.372706435803
100.372729606205
100.372705739051
100.372524278072
100.37226955889
100.37189022753
100.371462269463
100.370984259395
100.370285212203
100.369983201598
100.36966332322
100.369441951422
100.369388912716
100.369164684537
100.368990620325
100.369280906444
100.369044872831
100.368822212302
100.368597629598
100.368286598143
100.368005628462
100.367564150393
100.367804400336
100.368187145567
100.368451210207
100.368573388385
100.368775094504
100.368752830796
100.368575701478
100.367787244841
100.368000015608
100.368315479869
100.368420004828
100.368658537038
100.368203163365
100.367654680649
100.366936372433
100.36619095765
100.364656376074
100.364965907988
100.365609175248
100.366345185737
100.366913343704
100.367441053816
100.36791924158
100.369033438452
100.366369968324
100.365982121808
100.365770775139
100.365588003598
100.365230531144
100.364735877511
100.363497387343
100.362366256612
100.358917568875
100.363340031628
100.364768897509
100.364036479639
100.362478402047
100.361333452093
100.360046750064
100.358861600706
100.358770575613
100.359688555515
100.361833446216
100.36193943172
100.362824782045
100.363937305998
100.365090550963
100.365858446191
100.366621787263
100.36722767779
100.367839814244
100.368311949191
100.36873425656
100.368335826697
100.369323998351
100.366927610443
100.37212036
100.372215967778
100.372048856841
100.371754632492
100.371249328085
100.37045671184
100.36917657633
100.367481951157
100.366394846413
100.365238314594
100.367810895195
100.368471767948
100.365914100117
100.362890649475
100.361340471768
100.360012914914
100.353607434109
100.356060813223
100.355439181702
100.356014874978
100.357790106877
100.358946361272
100.364776836768
100.367631246385
100.369859158568
100.369825138974
100.370078033938
100.368701771103
100.369063821568
100.369460577063
100.369965914709
100.370272226218
100.370827553617
100.371574704187
100.371730137008
100.371687314726
100.371650970589
100.37173507779
100.371777500075
100.371847796434
100.371911467345
100.37191895329
100.372018282647
100.372087623863
100.372294647204
100.372509178237
100.37269513769
100.372837621739
100.372862610806
100.372843447929
100.37262976972
100.372372858535
100.371951472082
100.37150599463
100.371048128787
100.3703738826
100.370093840093
100.369774905806
100.369589035061
100.369557536204
100.369442824791
100.369696370152
100.369517654606
100.369583088017
100.369730235581
100.369881745519
100.369688333637
100.36952751595
100.369174203056
100.369297311485
100.369510349181
100.369347596976
100.369102440072
100.368749100028
100.369200796001
100.368827090053
100.368484216918
100.368151381364
100.367775898635
100.367367418313
100.3670016795
100.366343298501
100.366663794296
100.367160968558
100.367564842942
100.367813274149
100.368132863489
100.36846239262
100.368445357377
100.368185049924
100.367646216002
100.367172780466
100.367028116007
100.367600663162
100.367734115771
100.369422897831
100.370384718764
100.370676509116
100.370913563461
100.371833816802
100.371887153077
100.371722117543
100.371709983591
100.371811534228
100.371887498439
100.371949030546
100.371970409504
100.372096435077
100.372157541689
100.37234842586
100.372632941814
100.372842688905
100.372972281987
100.372991351878
100.37297517186
100.37274676098
100.372483538933
100.372066983672
100.371651298098
100.371158806092
100.370530778938
100.370229640378