/*--------------------------------*- C++ -*----------------------------------*\
| =========                 |                                                 |
| \\      /  F ield         | OpenFOAM: The Open Source CFD Toolbox           |
|  \\    /   O peration     | Version:  v1612+                                |
|   \\  /    A nd           | Web:      www.OpenFOAM.com                      |
|    \\/     M anipulation  |                                                 |
\*---------------------------------------------------------------------------*/
FoamFile
{
    version     2.0;
    format      ascii;
    class       volScalarField;
    location    "1.3";
    object      p;
}
// * * * * * * * * * * * * * * * * * * * * * * * * * * * * * * * * * * * * * //

dimensions      [0 2 -2 0 0 0 0];

internalField   nonuniform List<scalar> 
80683
(
100.068341762687
100.070311712007
100.067150667937
100.071476680325
100.078502938832
100.078639301255
100.076692431879
100.077242921666
100.077227836855
100.07760764317
100.078104864695
100.077873526767
100.079598247237
100.079213281622
100.081753622827
100.081755065008
100.078325995005
100.073511238018
100.072424849659
100.072375933523
100.07337932352
100.073234840933
100.072451342433
100.073891054403
100.080337891178
100.080387477578
100.074673326622
100.072866959822
100.072761556876
100.072048689071
100.071917005075
100.072902638766
100.072853194525
100.07460365493
100.08015253065
100.079983329142
100.073786237598
100.072405318375
100.073138523049
100.073092526376
100.072211033655
100.072261178696
100.073385019577
100.07812438562
100.081396184198
100.081247498912
100.074305151612
100.073790624041
100.071596350912
100.07107794641
100.071004310384
100.070633110929
100.07009786055
100.068961328775
100.07005232205
100.071202906174
100.071364986101
100.070528807111
100.069494468171
100.068342528934
100.067970701729
100.068560824131
100.068486488451
100.067810633868
100.068364076216
100.069494298639
100.070471122658
100.071453258239
100.071426086725
100.070235833884
100.069137389501
100.070314228723
100.070741222155
100.071071892606
100.071075533603
100.071577076388
100.074014937947
100.074723363546
100.072117592844
100.075273528254
100.07839112172
100.080043815262
100.077886437943
100.077635806346
100.078799428493
100.076793929048
100.074314670454
100.07011947693
100.075420989884
100.063519573911
100.051493708918
100.057210845719
100.058328724236
100.070515762645
100.066415016995
100.067629785554
100.06978434065
100.06778793472
100.06637303014
100.065859224011
100.068432630853
100.069932102319
100.065867347058
100.064926566154
100.06726244329
100.064468463305
100.063349568834
100.064379439665
100.064383684867
100.063400371386
100.064483115804
100.067213235413
100.064884720198
100.065684143463
100.070168264862
100.068957780545
100.066193371378
100.066559616988
100.067889090077
100.069846286786
100.067581164162
100.066288436022
100.0708368737
100.070871220685
100.067873616894
100.071413841076
100.077649531391
100.083048117048
100.076414746301
100.076321617859
100.080602727735
100.095898813852
100.064513218072
100.06505460591
100.048933166095
100.022478294782
100.023389241473
100.018925384779
100.019326608867
100.025706260172
100.056458482638
100.068804395308
100.06491138634
100.064712994314
100.071611002501
100.057888852187
100.058638079229
100.058566686512
100.058758251908
100.068467973947
100.063619862154
100.063608647094
100.068413789181
100.058783774797
100.0586071971
100.05863487394
100.057720728822
100.056557735041
100.058611177531
100.056830364767
100.017334498562
100.020505760422
100.021506342721
100.021353571742
100.020552683838
100.020688274432
100.022137400872
100.022782552464
100.026106567821
100.023220287223
100.024226813194
100.027815381518
100.027818827038
100.024234161468
100.023175137593
100.025859591341
100.02536838991
100.018652404897
100.020370865235
100.027152965707
100.027592650855
100.026469892868
100.026342202379
100.027434258638
100.027303797788
100.02639466124
100.026762867705
100.027048445892
100.021828757937
100.022598674192
100.023797658582
100.02375390048
100.022478479301
100.021603804995
100.022531062733
100.021804343385
100.026146863673
100.02740803739
100.028138099644
100.028395606288
100.027566664297
100.027585073094
100.028485155687
100.028313048465
100.027630005395
100.027861429497
100.028048192144
100.028050341166
100.027328882611
100.026920201922
100.026855961994
100.027141351821
100.026688234419
100.026485024679
100.027616878817
100.025812135772
100.025663536835
100.025873940348
100.026046436058
100.025539182844
100.025495612966
100.026042351338
100.025996368746
100.025777086138
100.025990603589
100.025983330226
100.025988781909
100.025857268787
100.027665961372
100.02761070393
100.027906871543
100.02779639242
100.025812356029
100.023473815105
100.02350586548
100.023395926371
100.023420097041
100.023432154164
100.023423877688
100.023338884598
100.023338161666
100.023482360699
100.02342462856
100.023610826125
100.023574258005
100.023633270575
100.0235892996
100.023566790733
100.025822963948
100.025932012723
100.023593981003
100.02167292095
100.021561243852
100.021574289285
100.021483345952
100.021519505496
100.021374654987
100.021837937347
100.021832875301
100.021390453804
100.021564603
100.02149097429
100.021638566181
100.02161413068
100.021709635539
100.021679897084
100.021662490556
100.019952085581
100.0199332334
100.01980144419
100.019791301479
100.019689261382
100.019774633093
100.019611236884
100.019505813487
100.019586001754
100.019729875223
100.01984210024
100.019752594133
100.019874588706
100.019857543746
100.01998085947
100.019973183249
100.018192419327
100.018145903755
100.018053008635
100.017857783443
100.017802858593
100.017661005146
100.017747915645
100.017766130181
100.017345538495
100.017401986285
100.017822683204
100.017895840615
100.017874499423
100.018001595507
100.017985701816
100.018169758197
100.016026158536
100.016095483354
100.015993564858
100.015752435846
100.015415803274
100.015324400303
100.015132881431
100.015171862464
100.015343118126
100.014654156646
100.014767706018
100.015530784865
100.015511033672
100.015634124251
100.015758937381
100.015773583437
100.012617452801
100.013106050923
100.013288239247
100.013059557579
100.012545749704
100.011820717377
100.011923288107
100.011651675403
100.011302627453
100.011814941664
100.010513067645
100.010757121759
100.012431434571
100.012102135814
100.012609565205
100.012775157146
100.008468568189
100.007225408575
100.008317183207
100.009038883311
100.00859700995
100.007287144229
100.005585462767
100.006648337552
100.006420593012
100.004679810219
100.006711208003
100.004164448884
100.00429684055
100.007615872647
100.006279115574
100.00834988013
99.9967830613665
99.996069381588
99.9904967657754
99.9928109492153
99.9964435072551
99.9956418157812
99.9909848393101
99.9876424211614
99.9930151953528
99.9936111092255
99.9868350355339
99.992011151536
99.9903017765115
99.9907663177662
99.9938602552613
99.99012147868
100.002140884984
100.008447023851
100.006099930603
100.000164897833
100.006079284922
100.007191342095
100.005758352146
100.002891604211
99.995364517985
100.000789011237
100.003059333863
99.9970362401117
99.9943928180327
100.030946244086
100.056504433026
100.057721505429
100.034366479089
99.9985316414269
99.9971281627049
100.091983632863
100.177523762915
100.12010169635
100.122104443259
100.10814897466
100.0919002368
100.079867528139
100.072321858117
100.066939890083
100.069397425137
100.081550842421
100.069671329603
100.067749630699
100.076386449387
100.062175629731
100.059090508898
100.064621413628
100.072218387987
100.086224341332
100.103575561694
100.200249077069
100.224080226473
100.226712049804
100.2057377411
100.207444957679
100.196778893171
100.219540302633
100.258193180723
100.166819204561
100.166304316158
100.220541191195
100.181380609821
100.206265014157
100.230571056371
100.169308793643
100.166526110704
100.225307846401
100.199510622522
100.171909358879
100.209607864061
100.154571493428
100.155196710615
100.207904374944
100.186454288469
100.199882693426
100.298038538215
100.349308804093
100.321084454756
100.324471924173
100.35752298886
100.324313891456
100.307418646088
100.414856348547
100.444865242918
100.420442285919
100.435344091505
100.430347601699
100.38825323567
100.327553361295
100.356627111994
100.303640182799
100.408484865388
100.435991045892
100.409774474157
100.420098113991
100.441262428676
100.394375069167
100.331094568212
100.331774056455
100.258632975469
100.299571905502
100.380629541281
100.419297050567
100.444242375066
100.459099261359
100.467222023003
100.471205001847
100.472879772845
100.473462405739
100.473532660215
100.47339270061
100.473284270286
100.473296528206
100.473281082816
100.473147585167
100.473099020876
100.473004284717
100.472948158589
100.473205486499
100.473978049545
100.475670323884
100.47940565038
100.487169944959
100.503534474997
100.52815577059
100.569447117579
100.56340118495
100.498338391591
100.441657803155
100.384893995807
100.352703488716
100.374938942801
100.373059993755
100.371001367878
100.371591142856
100.372657190928
100.373628080462
100.374772150691
100.376285906477
100.378093657971
100.379993403067
100.38172998748
100.383042345281
100.383729060598
100.382739436284
100.381574016296
100.380242326974
100.378759002401
100.377130949826
100.375357302638
100.373506085977
100.37172554264
100.37015092356
100.368865669201
100.367846895618
100.367052991641
100.366446889713
100.366016153761
100.365793325847
100.36582488861
100.366192393548
100.366995723698
100.368276591507
100.369875873864
100.371430174771
100.372190866242
100.372200534352
100.372121864632
100.372302962188
100.372386234711
100.372454780143
100.372503559074
100.372531618733
100.372671480514
100.372767485248
100.373074935757
100.373254373821
100.37339077954
100.37334556135
100.373267797234
100.373162577996
100.373064134762
100.372925859051
100.372929479972
100.372889916824
100.373120327202
100.373239034529
100.373300258446
100.373143605311
100.372964047588
100.372661996117
100.372545884768
100.372429383531
100.372407650429
100.372375725705
100.372309441196
100.372246156661
100.372160275825
100.372137950936
100.372022818567
100.37218626323
100.372232245647
100.372287285462
100.372324946727
100.372357108723
100.372433474826
100.372523706101
100.372820742108
100.373011739274
100.373176031615
100.372991536219
100.372842506858
100.372654140794
100.372385838007
100.372347447117
100.372282459624
100.372234973026
100.372201009562
100.37216596572
100.372132305633
100.372062151852
100.37204510329
100.371935378515
100.372080221526
100.372099454348
100.372129062339
100.372153063717
100.372203027602
100.372266128624
100.372300596243
100.372515190012
100.372679385185
100.372786225848
100.372784520395
100.372652122999
100.372449326254
100.372245767928
100.372188755278
100.372153804072
100.37243257572
100.372612017944
100.372505694758
100.372376772687
100.372196161931
100.372152275258
100.37211240275
100.372080258026
100.372061217663
100.372037255916
100.372019554481
100.371924910558
100.371905020916
100.371831836386
100.37197108116
100.371975787979
100.371985709771
100.372015813783
100.372054320591
100.372069326966
100.37207800235
100.372237489528
100.372343261589
100.372144501608
100.372070711798
100.37197654482
100.372002371106
100.371978984648
100.371936854116
100.371918292018
100.371919375914
100.371903686227
100.371794744496
100.371731838883
100.371739460439
100.371857906162
100.371859860589
100.371867181459
100.371878486843
100.371897049572
100.371904307731
100.371885296964
100.371978502927
100.371981172136
100.372024496955
100.371888286192
100.371876684218
100.371791605147
100.371837383185
100.371817841233
100.371860422786
100.371807683986
100.371859443353
100.371822217505
100.37180703764
100.371797206805
100.371794938701
100.371700318727
100.371545878961
100.371662115107
100.371744947425
100.371716437037
100.371742789599
100.371727059044
100.371763280921
100.371752832189
100.371782209893
100.371680134397
100.371773905995
100.371589451729
100.371524234243
100.37132357707
100.371396485476
100.371330208326
100.371597412226
100.371629363582
100.371716527709
100.371684413459
100.371719029645
100.371770060117
100.371743992225
100.371653587616
100.37171353346
100.371691761452
100.371674615957
100.371595727902
100.37155228734
100.371235770091
100.370309636805
100.371216185372
100.371557609293
100.371577891309
100.371636065372
100.371663825272
100.371656671404
100.371715440567
100.371686311147
100.371665568342
100.371675608038
100.371577655098
100.371447252198
100.371378748221
100.371278680473
100.371499247887
100.371330111017
100.371527040991
100.371627302466
100.371582673068
100.371631646616
100.371676283933
100.371628270943
100.371629117251
100.371600741257
100.371538093934
100.371524583372
100.371183520262
100.370078643584
100.371208955233
100.371533768769
100.371532876407
100.371581337175
100.37160376694
100.371607537381
100.371635706881
100.371619643039
100.371524641551
100.371564802261
100.37136490537
100.371380490988
100.371528447919
100.371607906957
100.37157561215
100.371426493335
100.371340755856
100.370945609152
100.370747300834
100.371058268899
100.371035454373
100.371382500822
100.371138932736
100.371451499199
100.371551627103
100.371585622195
100.371576985597
100.371589571171
100.371555123501
100.371573871546
100.371535292472
100.371517333757
100.371517782829
100.371218906176
100.370094081913
100.371351038782
100.371521570891
100.371497778453
100.371587506654
100.371502550415
100.37162928345
100.371562952485
100.371656255744
100.371640995553
100.371650123712
100.371683960504
100.371724082956
100.371775882943
100.371803877987
100.371722882423
100.371727626704
100.371763367154
100.371802689766
100.371853265589
100.371914016563
100.371969054081
100.372039526104
100.372099021744
100.372174924452
100.372240690401
100.372330515167
100.372471095276
100.372540702209
100.372604227188
100.372616007544
100.372763525939
100.372872080277
100.373180321714
100.373350726642
100.373474406642
100.373464222998
100.373377108034
100.373223263201
100.372935069375
100.372695355512
100.372572973977
100.372447477749
100.372346062638
100.372394103844
100.372512970654
100.372708314137
100.372821032941
100.373123312368
100.373013264123
100.372853869804
100.372625854542
100.372434856005
100.372375508517
100.372208601633
100.372062306742
100.371887689932
100.371736959447
100.371748175823
100.371811592625
100.372048235761
100.372293525097
100.372435168222
100.372553451113
100.372692750589
100.372609539956
100.372442472817
100.372217452694
100.372020718208
100.372005331433
100.371872890081
100.371737600235
100.371646946465
100.371441634086
100.371171673478
100.37089864551
100.370761167637
100.370514872199
100.370620233272
100.370733369864
100.371059511631
100.371368522839
100.371087873137
100.370869964768
100.370693695373
100.370456537601
100.37074195698
100.370717087348
100.371077247327
100.37111808964
100.371007370019
100.371233000857
100.371317907307
100.37161932314
100.371631058251
100.371650421236
100.371660760845
100.371654084501
100.37187454696
100.371918256053
100.371976960315
100.372009011794
100.372047969405
100.372080330483
100.372119074533
100.37215822976
100.372205382031
100.372251812717
100.372309156374
100.372367727856
100.372404790144
100.372556689636
100.372631478179
100.372698492265
100.372689789574
100.372868169016
100.372988324418
100.373286303597
100.373424306611
100.373553624674
100.373513575064
100.373511321909
100.373511221357
100.373317004741
100.373085454387
100.372950147705
100.372817198187
100.372497681656
100.372100785443
100.371934260419
100.371816630856
100.371625485558
100.371486316106
100.371347191194
100.371224121843
100.371078715846
100.370974915724
100.37084987346
100.370955088034
100.371141473685
100.371345372305
100.371495434794
100.3716398635
100.371728341411
100.371859055499
100.371973156392
100.372101120838
100.372212485211
100.372030455264
100.372262213106
100.372534066724
100.372528325141
100.372735550371
100.372643121663
100.372498381328
100.372234940927
100.372311274747
100.372413157619
100.3724344825
100.372498094648
100.372652019175
100.372713298684
100.372782153402
100.372783078636
100.372978965959
100.3730855207
100.373357695674
100.37347830323
100.373583434608
100.373563924504
100.373567740729
100.373385096875
100.373191917846
100.372899139054
100.372580969262
100.372248824698
100.371692677572
100.37144177734
100.371275929869
100.371108576867
100.370905670543
100.370742478003
100.37056126888
100.370412918247
100.370286273496
100.37050868847
100.370711574813
100.370936237888
100.371267501771
100.371320847875
100.371526309519
100.371331529994
100.371570079057
100.371763636782
100.371609989797
100.371931467064
100.372275739423
100.372449236407
100.3724815393
100.37241136233
100.37251005632
100.372566257676
100.372738232778
100.37277924153
100.372861347609
100.372870290873
100.373064210384
100.373165943266
100.373417520631
100.373535415444
100.373653785574
100.373631808496
100.373645818574
100.373469071447
100.373307767214
100.373034079869
100.372700705652
100.372403487977
100.371889655055
100.371666960114
100.371362496356
100.371169548479
100.371108139814
100.370877879654
100.370713754855
100.370532674486
100.370366540945
100.370132530334
100.369902459649
100.369693995224
100.369512993223
100.369322300335
100.36906633514
100.368830558655
100.369151100433
100.369450746783
100.369634210834
100.369804744384
100.369982258828
100.370176745038
100.370425521577
100.37063993701
100.370795015157
100.370933216617
100.371156556109
100.371009566396
100.370842537655
100.370418589047
100.370467308773
100.370670836313
100.370657268904
100.371223785537
100.371569515018
100.372079667425
100.372300911235
100.372328573945
100.372267432693
100.37237323475
100.372434761112
100.372259304958
100.372321349363
100.372393794587
100.3724183977
100.37253748685
100.372638549004
100.372838347107
100.372850473042
100.372944219759
100.372950650948
100.373145150711
100.373250803738
100.373486606553
100.373606027986
100.373755379564
100.373673441016
100.373746337127
100.37357497333
100.373409012969
100.373136107764
100.372827231567
100.372522747338
100.372029343381
100.371798009712
100.371389044762
100.371329243264
100.371167314178
100.371209017195
100.371142241112
100.371249765514
100.371069683744
100.370889108627
100.370735535633
100.37056011581
100.370359365294
100.370109537942
100.36987150184
100.369631834393
100.369389219719
100.369065211538
100.36870262061
100.368375143475
100.368112526153
100.367697849521
100.367955077957
100.368331111128
100.368609848413
100.368951743843
100.369204408719
100.369413110119
100.369666924348
100.369912879982
100.37017084058
100.370351928685
100.370523978801
100.370679814446
100.370904597021
100.370875186123
100.370764517316
100.370559932531
100.370463959614
100.370292775943
100.370521026837
100.370168949398
100.369926372804
100.36956520522
100.369166263914
100.368744672368
100.368241730366
100.367592152855
100.366643656095
100.365388565668
100.364581077808
100.364822822749
100.365536251271
100.366182870836
100.366784454992
100.367458245844
100.367999751401
100.368531915241
100.369008623778
100.369432726331
100.369851951721
100.370431542575
100.368681399549
100.368008907468
100.367546746444
100.367125608597
100.36677291884
100.366563943105
100.366299384384
100.365952224089
100.365192818528
100.364451401471
100.361554467896
100.359441599951
100.362878555829
100.362083772245
100.360640688419
100.356899147798
100.356650314225
100.357039353013
100.359923068297
100.361571911742
100.362353831017
100.36357520866
100.364443092093
100.365654191683
100.366588667736
100.36722172548
100.367903283172
100.368450063534
100.369002011587
100.369454020139
100.36985812471
100.370220632453
100.370670767483
100.370429878647
100.371032109404
100.36921176777
100.372623735139
100.372820941004
100.372912706558
100.373075431778
100.373208336043
100.373133839372
100.372701818777
100.371795761655
100.370623271787
100.369212510341
100.36753228203
100.366117197852
100.364282439845
100.364974542114
100.364642042561
100.361877905266
100.359575470682
100.359362966656
100.349522621162
100.352159061197
100.351714818466
100.355797794621
100.358416573951
100.365355562505
100.366942124942
100.369669039134
100.369591055674
100.369920826412
100.37018826452
100.37046276476
100.370864610811
100.371249422228
100.371610661247
100.371921624062
100.37083829865
100.369152278809
100.367558128167
100.366422587472
100.365817737045
100.365639579877
100.365779119096
100.366134458119
100.366647534333
100.367294041508
100.368106286274
100.369146042444
100.370452849988
100.372047402841
100.373850935319
100.375732104168
100.377549237701
100.379219006276
100.38072076078
100.382034146686
100.383144011928
100.384053593287
100.384793954893
100.384553758725
100.38357976646
100.382687266679
100.381656200342
100.380501202265
100.379234350327
100.377863653398
100.37636856143
100.37471109316
100.372948178561
100.371243007849
100.369735110343
100.368507226627
100.367542903695
100.366811692915
100.366290270972
100.365982035955
100.365908777366
100.366115657759
100.366668452809
100.367642145758
100.36900988598
100.370577118592
100.371888727627
100.372366920665
100.372481252257
100.372529566998
100.372506130793
100.372567423308
100.372707505012
100.372901551379
100.372904429574
100.373019525001
100.373047268733
100.373271328228
100.373390590511
100.373572854995
100.37373161704
100.373738097601
100.373828145309
100.373878919708
100.373858915344
100.373701916727
100.373543719748
100.373214997528
100.372971467955
100.37277905546
100.372623317347
100.372308350921
100.371961405039
100.371565211791
100.371455524662
100.371310901479
100.371298265195
100.371410973412
100.371330772965
100.371595214296
100.371482202954
100.371294354392
100.371412166546
100.371196799161
100.371036583243
100.370879856864
100.370665125784
100.370424482336
100.37018585759
100.369918577221
100.36961341203
100.369342634436
100.368874708272
100.369099678608
100.369459140041
100.369763811654
100.370018688944
100.370255530046
100.370504083206
100.370715044342
100.370876145892
100.371051172456
100.371276904883
100.371127698351
100.3711602386
100.371203351113
100.370991472149
100.370624796224
100.370299770019
100.370175197314
100.370352994521
100.370601259608
100.370818276508
100.372363104666
100.372272416727
100.372825897016
100.372651933
100.372427940251
100.372729347509
100.372720998152
100.372868314522
100.373080873548
100.373024138228
100.373145022855
100.373226256938
100.373496684958
100.373779227455
100.373949075614
100.374040609302
100.373992348234
100.373888733921
100.373810537288
100.373682768571
100.373369056265
100.373120142854
100.372741717243
100.372417541789
100.372093295478
100.371715154944
100.371584880024
100.371314917473
100.37144005797
100.371292194739
100.371434513988
100.371522961506
100.371722685611
100.371638645553
100.371879873483
100.371713786887
100.371736778534
100.371594035387
100.371471430463
100.371332747525
100.371163801728
100.370972238792
100.370780019988
100.370561367076
100.370306568681
100.37002501432
100.36973170831
100.369390796825
100.368963603954
100.368490541106
100.368133188528
100.367690066022
100.368022212571
100.368468023023
100.368912296823
100.369154559959
100.369482024509
100.369794934502
100.370086237093
100.370339914312
100.37057432535
100.370790964687
100.370980754481
100.371154109401
100.371340205631
100.371550497902
100.371689136001
100.371578621577
100.371472970623
100.371465000569
100.371187862047
100.370302042088
100.369513347362
100.36920716883
100.369468582007
100.369822210996
100.370518409412
100.370922955832
100.370796096885
100.369877258567
100.371706603034
100.369971619803
100.372264021484
100.372448597699
100.373863802065
100.372330598473
100.371874687705
100.371385709975
100.370685372136
100.369916257309
100.369185703112
100.368493803581
100.367844332178
100.367222631426
100.366517609709
100.366391919308
100.364718628538
100.364478838149
100.364101820316
100.362891813044
100.360295481984
100.359218208256
100.358566971477
100.358722185853
100.349969612146
100.353324293676
100.349945318659
100.349088531171
100.352016527706
100.353626714544
100.351779082966
100.352496196481
100.352552093619
100.357517609388
100.355950255217
100.358065614614
100.356448191271
100.354273102839
100.3554159832
100.357913860233
100.359313042704
100.360488816479
100.360663121702
100.358382787366
100.359278077128
100.361558901076
100.362843754126
100.364519988198
100.364239280436
100.365565254432
100.366559642929
100.367555799928
100.368313434959
100.36899680367
100.369507253885
100.369927037494
100.37027268881
100.370610631838
100.370793454148
100.370819380239
100.370940336438
100.371044087195
100.370216258538
100.369273210815
100.371756231323
100.372811146218
100.373016273453
100.372786305606
100.372816050763
100.372989595843
100.3729952583
100.373235458534
100.373200661652
100.373316235111
100.373411536704
100.373693444296
100.373792370986
100.374089562441
100.374216592927
100.37416340587
100.374205070045
100.374133852043
100.374100250743
100.374077429019
100.373967642959
100.373785174649
100.373520832158
100.37327174503
100.373206282801
100.372737333599
100.372508360267
100.372263289411
100.372172922954
100.371937590451
100.371730028959
100.371472322854
100.371559893281
100.371543161132
100.371685609567
100.371830243026
100.371747026242
100.371941002397
100.371870757617
100.372018092479
100.371907509021
100.371809069644
100.371663174495
100.371664530364
100.371461376605
100.371314003264
100.371133294884
100.370944500516
100.37071455659
100.370490423122
100.370206423103
100.369905817084
100.369603022811
100.369240697598
100.368811605566
100.368465797694
100.368684895253
100.369125387665
100.369486152342
100.369799330993
100.370100645006
100.370381475478
100.370614100415
100.370831144656
100.371035648586
100.371226497297
100.371388648547
100.371552228744
100.371566529839
100.371615259321
100.371439170056
100.371244406194
100.371466603872
100.370726933496
100.370972311804
100.370196247704
100.370639997084
100.371041879165
100.371133132658
100.371373847333
100.371233546434
100.371512433228
100.369742358534
100.373350368086
100.37478363699
100.373276086248
100.372231187452
100.372454358499
100.371116782422
100.370468635495
100.369662752566
100.368671225043
100.367982431191
100.367320640849
100.366718540928
100.366146115482
100.365707522981
100.365238599908
100.365217019
100.365573964308
100.366318641661
100.366959510195
100.36776097165
100.368709104073
100.369561541265
100.370359264069
100.370933241125
100.371562920839
100.372310402577
100.371678528672
100.371464446075
100.371966283747
100.37229987057
100.37269271018
100.372612484261
100.372580431547
100.372795162746
100.37279663147
100.37303131694
100.373057073847
100.373088057864
100.373286385247
100.373341625855
100.373571648176
100.373865528923
100.374020030129
100.374107026296
100.374068148598
100.374067141155
100.374049365776
100.373944242281
100.373690144864
100.373310384131
100.373035132018
100.373308080449
100.373448843901
100.373645995931
100.373946863181
100.374076464184
100.374163450117
100.374210927089
100.37410310278
100.373983952357
100.373775878645
100.373706924681
100.37357624263
100.373308665881
100.373265282093
100.373176698974
100.373195888988
100.372932074292
100.372937002857
100.372766865842
100.372693353124
100.372602252373
100.372867178601
100.372852597556
100.373095776896
100.37313215927
100.373200753146
100.373220757475
100.372841431109
100.372928804147
100.373037057715
100.373157514598
100.373409074668
100.37347727771
100.373691165889
100.374029732597
100.374185345036
100.37419643773
100.374110304604
100.373941100729
100.373859960965
100.373701266614
100.373655936507
100.373580423726
100.373456517442
100.37326661044
100.373038612353
100.372699154599
100.372580847107
100.372203444395
100.371994788519
100.371845308636
100.371580699952
100.371675599389
100.37156243521
100.371832191577
100.371708600801
100.371824296262
100.371889843243
100.372009573164
100.371964465516
100.372101852363
100.372051558605
100.37212256375
100.372032771495
100.371921582027
100.371786572891
100.371617062686
100.371437529707
100.37126542009
100.371060399556
100.370857366802
100.37059956046
100.370361629606
100.370059788731
100.369736516008
100.369412306898
100.369016831151
100.368549408622
100.368193282038
100.367675463012
100.367026564595
100.366357718263
100.365726246016
100.3648288605
100.36405018499
100.364960526901
100.365792423195
100.366447509763
100.367128740753
100.367708090114
100.3681373737
100.368319205501
100.367950008703
100.367632834474
100.367022953404
100.366353244754
100.365627160923
100.364635253474
100.36548127682
100.366029609772
100.366718678265
100.367265213193
100.367616383189
100.366980056023
100.366409725339
100.365583717299
100.366155725066
100.366691383048
100.367241314498
100.367836089319
100.368342409722
100.368732534965
100.368898167076
100.368394483283
100.367952713936
100.367552613408
100.367115804663
100.366387372823
100.366896836168
100.367484791518
100.367781877054
100.368129739894
100.368516552552
100.369020203071
100.369404563438
100.369687005306
100.369931186066
100.370167022704
100.370416605013
100.370621059351
100.370792544884
100.37095680233
100.370899830178
100.370629342917
100.370299561634
100.369883068705
100.370052319132
100.370175505766
100.370441878245
100.370836027161
100.371100763201
100.370999429406
100.371059964751
100.371181834626
100.370556453844
100.370137312998
100.370485870744
100.370018909612
100.369469597007
100.368748917512
100.36796280736
100.366952008545
100.365892331629
100.365422494536
100.366826635649
100.368018347339
100.368916431767
100.369691504406
100.370262446866
100.370730324832
100.371069289317
100.370851119229
100.371175165175
100.371349209474
100.371434537063
100.371423711498
100.371237422424
100.371335802586
100.371075652253
100.37118113824
100.371923697519
100.370550552647
100.37264823808
100.373078597983
100.374495793195
100.373219286294
100.373048119215
100.371918087217
100.371305907626