/*--------------------------------*- C++ -*----------------------------------*\
| =========                 |                                                 |
| \\      /  F ield         | OpenFOAM: The Open Source CFD Toolbox           |
|  \\    /   O peration     | Version:  v1612+                                |
|   \\  /    A nd           | Web:      www.OpenFOAM.com                      |
|    \\/     M anipulation  |                                                 |
\*---------------------------------------------------------------------------*/
FoamFile
{
    version     2.0;
    format      ascii;
    class       volScalarField;
    location    "0.5";
    object      p;
}
// * * * * * * * * * * * * * * * * * * * * * * * * * * * * * * * * * * * * * //

dimensions      [0 2 -2 0 0 0 0];

internalField   nonuniform List<scalar> 
80212
(
100.336600861045
100.335986461931
100.33593722731
100.338695357746
100.342247245685
100.342222333439
100.342538857472
100.34245935664
100.342979752568
100.344491441468
100.34381797875
100.342855536654
100.343170093536
100.344289280124
100.344911653342
100.343133842813
100.342563848541
100.342550248199
100.342232668282
100.342248890556
100.34281917628
100.343048206741
100.343927971842
100.345685176599
100.344092307785
100.342025820706
100.341077342524
100.340899600284
100.34133309339
100.341701573945
100.344311449166
100.344099374218
100.34335406322
100.342971002745
100.341538389996
100.34183527628
100.342562574076
100.341779066874
100.343229696678
100.345199725703
100.345120374902
100.343143846065
100.341728155905
100.342542728886
100.341820459293
100.341517850407
100.34294336331
100.343327894777
100.344063254194
100.344298029794
100.341691246111
100.341326284304
100.340900136273
100.341078852861
100.342027282854
100.344093444688
100.34568490335
100.343927132521
100.3430522785
100.342823997371
100.339731608978
100.340048399623
100.339502684933
100.339744819063
100.339486435534
100.339391830083
100.338957107318
100.338693645826
100.339188697609
100.339138234277
100.33949141214
100.339407579259
100.339196333305
100.339722732046
100.339032098418
100.338582276332
100.338828618654
100.338816036133
100.338889422259
100.338618630763
100.338612571006
100.338883410767
100.338808956903
100.338827884888
100.338600577364
100.339073579647
100.339765425559
100.339234815451
100.33943202698
100.33950392026
100.339142425662
100.33919040488
100.338691981784
100.338958512721
100.339390848368
100.33948167531
100.339741977345
100.339499859069
100.34004201277
100.339725525505
100.338700494521
100.338790654492
100.339973590621
100.340392774641
100.339834418703
100.340470575215
100.339959846418
100.339718213734
100.339880187768
100.340263082403
100.340649614997
100.339890121777
100.340427412081
100.339996289063
100.338798558647
100.336028356803
100.337620164431
100.335175555786
100.335258926466
100.335402076276
100.338118172239
100.336440299442
100.33446661757
100.335531097438
100.336481702612
100.336601429275
100.336307208544
100.337240924036
100.337432933716
100.336322616669
100.336656151886
100.336547668448
100.336504798938
100.336216663652
100.335081606867
100.334462247521
100.336310835527
100.335653927026
100.3346936611
100.334684104818
100.335657753219
100.336287625121
100.334440386156
100.335087027289
100.336274455531
100.336567321913
100.336607166936
100.336692569673
100.336336528203
100.337434492411
100.337241742042
100.336307246986
100.336601671681
100.336480002607
100.33552837404
100.334461227323
100.336436945008
100.33810902045
100.337280922543
100.335937115498
100.336002583749
100.337569652582
100.338713874667
100.33687095759
100.334963806467
100.335721572013
100.336530730846
100.336624026693
100.335914486282
100.335148491996
100.337022286234
100.338804722768
100.335185168613
100.32599917487
100.326562523839
100.32671016
100.326268679475
100.327119011165
100.335476419966
100.335858273187
100.335890125626
100.336734172179
100.338440443891
100.3358472692
100.335054363189
100.333868005708
100.337084544505
100.334816203454
100.334257974691
100.332926648962
100.334081335037
100.333563703022
100.337487421664
100.337532691409
100.333593420988
100.334170742148
100.333293882601
100.334406683965
100.332884553746
100.335483743555
100.335995901061
100.336516202636
100.334959361941
100.337210881208
100.333906304905
100.335055576112
100.335849602415
100.335469303488
100.335389568735
100.335248554499
100.335179199522
100.335195902168
100.334991371219
100.334963119077
100.326904161971
100.325375774649
100.325087031966
100.325365955307
100.325404295347
100.325177602725
100.325547405529
100.325649544539
100.327008718031
100.32689637277
100.327091688785
100.328130671458
100.3332804524
100.332674140747
100.329313402369
100.327639354467
100.32655512247
100.326650837021
100.328493084558
100.328037413439
100.328004823461
100.328420861806
100.32803864149
100.327020302327
100.326865267111
100.326993864064
100.327116212544
100.326268665507
100.32671585615
100.326578093944
100.326030237836
100.326938931665
100.325382434419
100.325933166677
100.325932551529
100.325910039804
100.326042679863
100.32606469174
100.326007162801
100.326133877064
100.326255988398
100.326447225891
100.325833473045
100.326154394287
100.326416351737
100.326470812097
100.326459933975
100.326757820381
100.327010036815
100.326962257353
100.326533243666
100.326439582555
100.326080869431
100.325799377025
100.325634113707
100.325541232132
100.325174329671
100.325414382387
100.325370874044
100.325086595943
100.325899809404
100.325731442413
100.325731195097
100.325730169637
100.325727250244
100.325841096833
100.325873530397
100.32587617296
100.3259728129
100.325996781995
100.326142991119
100.326033795751
100.326018710198
100.325984185625
100.326097603937
100.326105304348
100.326746602506
100.326386571555
100.32639418123
100.326383869598
100.32644341329
100.326255671112
100.326134949485
100.32601462738
100.326066454262
100.326039233285
100.325849087183
100.324790741206
100.324690653344
100.324702926027
100.324699358353
100.324680115375
100.324776412313
100.324825884374
100.324848681408
100.324987181461
100.325003600193
100.325102335317
100.325053929616
100.325094257796
100.325085846279
100.32514511326
100.325158362221
100.325121915079
100.325150366746
100.326044420178
100.32604370433
100.326151639011
100.326010627255
100.325982603792
100.325889163738
100.325879533126
100.324840067696
100.323627620606
100.32355038428
100.323454945981
100.323464532295
100.323459208875
100.323441802438
100.323529171192
100.323600934781
100.323660169223
100.323841016831
100.323905316516
100.324020526784
100.324039865476
100.324137570553
100.324168641771
100.324224100404
100.324220586567
100.324168418681
100.324148662875
100.324057890812
100.325087902332
100.325133779723
100.325018246692
100.325010975519
100.324871428131
100.323689705603
100.322557585733
100.32245125235
100.322332473717
100.322211950952
100.322206599443
100.32219954611
100.322191889459
100.322301845078
100.322411658269
100.322516333986
100.322762944668
100.322893109428
100.323058369786
100.323131300381
100.32328226075
100.323349661049
100.323424458601
100.323430948216
100.323359751277
100.323301007894
100.323171576226
100.323113040878
100.322945484113
100.322816033782
100.321715970053
100.321371435236
100.321195157232
100.321004379147
100.320826663392
100.320800000555
100.320790858182
100.320795353526
100.320960583126
100.321137159315
100.321303025018
100.321642331658
100.321877237879
100.322113305329
100.322254781094
100.32247745527
100.322589706537
100.322722033985
100.322761887731
100.32270013016
100.322596790141
100.32235152481
100.32219550204
100.321953812785
100.320812838635
100.32042095203
100.319898903316
100.319663349805
100.319354859004
100.319076962098
100.319035743733
100.319022337235
100.319034275418
100.319292899173
100.31957920123
100.319797641185
100.320312015175
100.320699624824
100.321047152421
100.321301527366
100.321667581504
100.321813358669
100.322077985697
100.322137076192
100.321967628559
100.321828325245
100.32144550425
100.321166860366
100.319840703447
100.319338663308
100.31869272945
100.317817649622
100.317587363174
100.317106883519
100.316671236385
100.316646609117
100.316628756065
100.316615671272
100.317021024308
100.317463635028
100.317671042366
100.318533951831
100.319174734173
100.319682264175
100.320145754044
100.320793139894
100.320875832414
100.321403160753
100.321445493912
100.320999709876
100.320924536907
100.320302589961
100.318744412837
100.317742012141
100.316995333467
100.316139904272
100.31456886213
100.314408475637
100.313737970846
100.312861634694
100.313012539466
100.312991858994
100.312801192653
100.313605602526
100.314220584756
100.314359205448
100.315897126059
100.316752698739
100.317517808588
100.318560695124
100.319702741147
100.319492798666
100.320546209472
100.320589295655
100.319581785112
100.319818863688
100.319003831932
100.316609270457
100.312945733121
100.312576940444
100.311511313768
100.308517323595
100.308629561876
100.307761091936
100.305772210487
100.306722794975
100.306725989113
100.305851108422
100.307523531018
100.30832294426
100.308200714815
100.311110306214
100.312206223938
100.312575076247
100.316327704067
100.318844584272
100.317511099556
100.319783924848
100.319844985344
100.317614867562
100.31638194701
100.311838791177
100.306204419503
100.304981077224
100.306983660693
100.305167470054
100.300075402099
100.300481241283
100.299346941057
100.295850602267
100.29794419682
100.297922198973
100.295709255289
100.299065914929
100.300069562174
100.299531957716
100.304615332127
100.306401132469
100.304361327798
100.305818168023
100.311597321674
100.316199892391
100.312112904249
100.310818098569
100.31081476618
100.31216329767
100.326936594769
100.328566091614
100.326345230534
100.321179632085
100.320069177312
100.316473992426
100.311369041728
100.310351048886
100.309083712858
100.305477137292
100.306393521398
100.306329332004
100.305267250834
100.308712703132
100.309842819632
100.310600160393
100.315644852353
100.319196238141
100.320297433003
100.325773060482
100.328176480416
100.326756971732
100.3321552645
100.332207921805
100.37194405979
100.368144904681
100.364744699169
100.363156531344
100.358326557491
100.353241729586
100.347374484338
100.348040495685
100.339865064599
100.339738439805
100.337081000758
100.345934831328
100.362978672886
100.362970302869
100.345775231557
100.330903810697
100.330961785477
100.379071047223
100.415032857366
100.394484464733
100.394552165512
100.402824688979
100.394457979021
100.378356393872
100.336845246172
100.339248420635
100.339247401882
100.347045874332
100.346219883621
100.352015293044
100.357137010092
100.362426035286
100.36416661043
100.367812496799
100.371839872999
100.413649282616
100.413726829703
100.429336505975
100.418152181619
100.410245764134
100.40594174902
100.404443980197
100.411375761457
100.391842310548
100.384641384113
100.398976225895
100.385418677584
100.392225314185
100.392496306767
100.394629811206
100.402757393234
100.435292253473
100.429319281052
100.429398298144
100.435462600141
100.423155036478
100.425077891754
100.427895911125
100.391423393676
100.377400465915
100.392083099893
100.429758865129
100.449070904042
100.463714972584
100.4715176596
100.476615278886
100.481363787942
100.483738016366
100.484976692564
100.485813671235
100.486335045487
100.486660882717
100.486924934728
100.487146524105
100.487340643645
100.487547195217
100.487813483381
100.488173437841
100.488729642898
100.489668871598
100.491238083282
100.493805680525
100.498176567304
100.504921083509
100.515702258706
100.526083134282
100.543885003905
100.532103103962
100.482178357102
100.433661842199
100.382508903201
100.35439089086
100.372514062004
100.37306805226
100.370893332585
100.370894042269
100.371918450856
100.37305878311
100.374272874271
100.375707118581
100.377309503221
100.378867228868
100.380153915016
100.381033462821
100.381441899766
100.380935503655
100.380240563739
100.379311755753
100.378166340879
100.376816234249
100.375213992994
100.373393003346
100.371525149668
100.369784033031
100.368273585426
100.36698448775
100.365882481595
100.364919758075
100.364091830623
100.363521054602
100.363417614996
100.364017429926
100.365408504801
100.36739992604
100.369385381497
100.370831491704
100.371299422763
100.371266939931
100.371178194573
100.371142720518
100.371118561748
100.371150102193
100.37117223118
100.371104661395
100.371231415409
100.371388900527
100.371664561136
100.371883403198
100.372033815723
100.372139577789
100.372106145935
100.371788780458
100.371727413943
100.371647025055
100.371642360958
100.37174896193
100.371581232954
100.371302602633
100.371171174837
100.371062473581
100.371105524316
100.371092177043
100.371067837691
100.371058735677
100.371088752635
100.371149074455
100.371113232548
100.371064458212
100.37103231822
100.371043990594
100.371030784553
100.371063078877
100.371053807784
100.371113812678
100.371192424833
100.371487321324
100.371272014989
100.371337137417
100.371331697986
100.371044225902
100.37098902893
100.371062813068
100.370993186251
100.370969383095
100.370958443822
100.370967835052
100.370952517021
100.370978559586
100.370911365887
100.37087257553
100.370961581589
100.370836364272
100.370904319978
100.370905779938
100.370880679376
100.370873009105
100.370882083148
100.370910686884
100.370902431707
100.370890420233
100.371202201311
100.371436886632
100.371580284271
100.371475077092
100.371534146494
100.371539957221
100.371393993466
100.371306092636
100.371251627942
100.371167017458
100.371364532254
100.371266540007
100.371123776406
100.370849296663
100.37083143235
100.370820101646
100.370798570869
100.370787258925
100.370815157528
100.37082039492
100.370844058951
100.370754094455
100.370773154214
100.370706619766
100.370790327475
100.370734793421
100.370735926274
100.370709148061
100.370740493148
100.370698170278
100.370714483666
100.370725393593
100.371022407326
100.371120059407
100.370918896699
100.370986475495
100.371009253825
100.370791230727
100.370761169832
100.370715608085
100.370891279816
100.37067945144
100.370682490088
100.370645124747
100.370642023176
100.370635860176
100.370643044383
100.370653830744
100.370658141752
100.370708587096
100.37061292965
100.370650183623
100.370557423689
100.370658358465
100.370594646312
100.370591319645
100.370591271709
100.37058333549
100.370557105947
100.370594829696
100.370566149267
100.370551790343
100.370421189404
100.370629271068
100.370842423029
100.370816701528
100.370777131851
100.370670818329
100.37069007305
100.370634399709
100.370683318584
100.37053885922
100.37033997068
100.370395633782
100.3704810595
100.370511357568
100.370514673492
100.370512027978
100.370528683833
100.370581533672
100.37048856358
100.370498027794
100.370458292354
100.370526755164
100.370468246222
100.370435966978
100.370426942379
100.370419985746
100.3703691152
100.370331526583
100.370304502957
100.370236063684
100.370323428583
100.370406083361
100.370422030946
100.370439057721
100.370300325204
100.370217107458
100.370173455287
100.370208460749
100.370254732433
100.370402823756
100.370101388436
100.369992084184
100.37017359995
100.370025368688
100.370187873611
100.370070521642
100.370172156861
100.370178975777
100.370160889604
100.370239988042
100.370303099868
100.370306191478
100.370346697642
100.370390726391
100.370395174451
100.37038724601
100.370442098629
100.370359399642
100.370390002047
100.370103013712
100.369745085591
100.37027840588
100.370344517411
100.37035448535
100.370379845011
100.370344944928
100.370349919762
100.370282048808
100.370231454188
100.370191292094
100.37018298512
100.370138406649
100.370068258278
100.370048062525
100.370001843294
100.369994935034
100.370091848205
100.37004739451
100.370065077087
100.370021342786
100.369945328117
100.369887698308
100.369748288304
100.369620747779
100.369534399373
100.369706591129
100.36961807349
100.369822095774
100.369934045708
100.370031672405
100.370090177324
100.370136638086
100.370129522142
100.370129511472
100.370189712189
100.370246713632
100.370273701986
100.370316868515
100.370312198384
100.370291767599
100.370225214383
100.369853044359
100.370307781759
100.370253768916
100.370276507184
100.370253154876
100.370251809127
100.370210955598
100.37020898418
100.370240927465
100.370233882351
100.37025968036
100.370365511316
100.36973292372
100.368604742965
100.370170307945
100.37035435399
100.370229093758
100.370218074903
100.370204796967
100.370169510108
100.370161852543
100.370132916545
100.37011886555
100.370015815398
100.369958440521
100.369871821567
100.3697049591
100.369587172007
100.369785326902
100.369881654743
100.369974082651
100.369953876869
100.369826130827
100.3696289437
100.369373210915
100.36900578426
100.369587909296
100.369411383985
100.369736165631
100.36963373265
100.369840170079
100.369951553788
100.369963600617
100.370067625154
100.37004783285
100.370056170582
100.370100889672
100.370153805969
100.370164816804
100.370165091562
100.370191156878
100.370199352801
100.370245222836
100.370141481828
100.369458145799
100.370241005863
100.37018008976
100.37018122993
100.370162401466
100.370132889542
100.370122514379
100.370116430508
100.370130768492
100.370062304421
100.370064355762
100.370027209131
100.369931273455
100.369810014357
100.369597477468
100.369395271113
100.368855874146
100.369467033693
100.369394246551
100.369664154279
100.369650901428
100.369820033548
100.369927341557
100.369959034437
100.37005708116
100.370046788771
100.370106432624
100.370122513908
100.370136289518
100.370168557016
100.370174526738
100.370169008438
100.37032187241
100.369538785767
100.36852520627
100.370132608935
100.370287830294
100.370181050716
100.370175237073
100.37015892269
100.370135132657
100.370129744763
100.370047536471
100.370065905151
100.37002036818
100.369924287545
100.369797359077
100.369626429541
100.369400059412
100.36891986942
100.369304326187
100.369598404895
100.369643276537
100.369794769048
100.369822510363
100.369923973472
100.369965101763
100.370050991281
100.370036868114
100.370094063765
100.370120487922
100.370145127424
100.370162190275
100.370182863523
100.370237768147
100.370128524175
100.369691831719
100.370272834372
100.370205721361
100.370177855692
100.370172362361
100.370134103373
100.370113699952
100.370040964298
100.370060366456
100.370048297322
100.370080026138
100.369961677424
100.369935462561
100.369813061956
100.369622986767
100.369367265371
100.36892144475
100.369355852221
100.369597285226
100.369793993616
100.369914688765
100.369938074638
100.369805015109
100.36959381982
100.36941355725
100.368934481563
100.369341861199
100.369446053482
100.369644971982
100.36971857968
100.369835855745
100.369944978297
100.370008102893
100.370081688271
100.370057390645
100.370075370369
100.370065877368
100.370127007257
100.370161843802
100.370174810773
100.370228971997
100.370218807949
100.370216950839
100.370391036532
100.369873629237
100.36942214602
100.370335730724
100.370322225944
100.370263290086
100.370296006835
100.370242280326
100.370192421105
100.370151666146
100.370174481236
100.370228794497
100.370124107639
100.370117149505
100.370123144803
100.370153485063
100.370054310729
100.369998368277
100.369904496629
100.369770887173
100.369570807189
100.36925391343
100.369576975056
100.36972211495
100.369865703518
100.369975077051
100.370004919012
100.369930836204
100.369774235275
100.369723141011
100.369326280869
100.369686259105
100.369838395171
100.36995230918
100.369925825121
100.370000216155
100.370047859262
100.370151014744
100.370181585414
100.37016449724
100.370213937921
100.370182986608
100.370245486759
100.370258072994
100.370320519463
100.370391700655
100.370344173683
100.370356436592
100.370442462763
100.369707786769
100.369422131705
100.370420105813
100.370538375721
100.37043429451
100.370485158635
100.370411483296
100.370322507915
100.370294675517
100.370290802355
100.370357287993
100.370429508406
100.370523826945
100.370608453953
100.370555943138
100.370448838788
100.370445817907
100.370684188037
100.370708958396
100.370636981054
100.370532155874
100.370455245923
100.370394408238
100.370322967383
100.370237418542
100.370278897525
100.370314828624
100.37025211206
100.370146006335
100.370114580454
100.370094004124
100.369926748286
100.370062979087
100.370138262935
100.370161597044
100.370248777783
100.370288609388
100.370249483973
100.370236158258
100.370180087983
100.370320302648
100.370289873213
100.370319243411
100.370283018373
100.370346222483
100.370365012176
100.370427254279
100.370442892036
100.37047572616
100.370543847735
100.370623625735
100.37073211144
100.370836220714
100.3708950715
100.370615657132
100.37079024758
100.370945138094
100.370896945216
100.370837689085
100.370718630697
100.370662854869
100.370567154407
100.370462371415
100.370373216933
100.370440428919
100.370342803601
100.370415915081
100.370469454605
100.370614871971
100.370438467219
100.370615727483
100.370501730157
100.370433931118
100.370352249193
100.370464270393
100.370502862864
100.37053303892
100.370620040833
100.370619474894
100.370705755096
100.370805933898
100.370913696593
100.371024662378
100.371068720776
100.370799490379
100.371214139888
100.371136674629
100.371067373065
100.370984132848
100.370870904891
100.370777086491
100.370720775788
100.370625570954
100.37060026554
100.370564565461
100.370450906792
100.37058759598
100.370721163869
100.370950285359
100.370880235127
100.370993319348
100.370802329646
100.370675043363
100.370465087407
100.370582242245
100.370688678211
100.370591273936
100.370821176022
100.370981625453
100.371285955522
100.371210808157
100.37127426782
100.371075266284
100.370872494915
100.370568604846
100.370686283074
100.370738630155
100.370688455471
100.370717751773
100.370828447906
100.370863824758
100.370954747631
100.371054999562
100.371159995597
100.371201650912
100.370947822658
100.371302625989
100.371189363149
100.371204992994
100.371118583705
100.371047346363
100.37095635809
100.370908491146
100.37078729624
100.370840280484
100.370774667673
100.370703382349
100.371061521181
100.371309869738
100.371620723164
100.371556950455
100.371571486043
100.371346407084
100.371097819193
100.370718263325
100.370788551897
100.370920075346
100.370912931209
100.371271658764
100.371523569735
100.37179981583
100.371733385192
100.37171477538
100.371512356925
100.371314126484
100.370948024957
100.370915609513
100.37096886046
100.370874464524
100.370921114564
100.371022442618
100.371119600835
100.371135332802
100.371191302289
100.371289286867
100.371314362982
100.371251641958
100.371352092288
100.371580732912
100.370949935693
100.371135551748
100.370065072817
100.370473960545
100.369203456969
100.369879567094
100.368524551441
100.366849152836
100.368105941973
100.366398580118
100.368068354663
100.366452289806
100.364934411703
100.367158180994
100.36603414174
100.365284740252
100.367838812592
100.367566710933
100.367520344499
100.369581974918
100.369726672351
100.369924565615
100.370179851653
100.370467689559
100.371090225753
100.370815297464
100.371036163019
100.371257362751
100.371490212514
100.371371890976
100.371282368802
100.371248558177
100.37128109851
100.371335999294
100.37134478524
100.371400525401
100.371462384797
100.371734726695
100.371950249976
100.372173582715
100.372342869168
100.372402091772
100.372282211162
100.372298334062
100.372093464106
100.371754253492
100.371733302771
100.371909907735
100.371920714406
100.372166811462
100.371967467999
100.371835367573
100.371818024311
100.371671670588
100.371462775482
100.371034302455
100.370542140984
100.370815244104
100.37093122979
100.370893703843
100.370765130433
100.370920698366
100.371007022413
100.37117933087
100.371284222408
100.371180044813
100.371149061829
100.371157995195
100.370926184427
100.370650484216
100.370340946919
100.370665108801
100.370744952452
100.370811747864
100.370876593327
100.370940316851
100.37102155341
100.371090890462
100.371196336404
100.371236099654
100.371257750567
100.371292241952
100.371294737883
100.371519780606
100.371798050219
100.372036486321
100.372220419944
100.372262803217
100.371912588048
100.37161930812
100.371225497765
100.37107791835
100.371184059895
100.371077270207
100.371133173539
100.371492503298
100.371584621585
100.371846944272
100.372044664924
100.372261415834
100.372448765954
100.372507460295
100.372492116228
100.37224468957
100.371923849197
100.371849154169
100.371329852863
100.370742017468
100.370077908635
100.370370132523
100.370603346384
100.370684618081
100.37064210354
100.370636666678
100.369631393988
100.368946012454
100.36894716676
100.368979006136
100.368916070344
100.369303858477
100.369745247798
100.369797776612
100.369676136798
100.36913172663
100.369702676567
100.370025526311
100.370091743054
100.369924676896
100.370490922635
100.371083527952
100.370989538212
100.371110047964
100.371173698906
100.371236411379
100.371303174481
100.371255336701
100.371192403236
100.37118753091
100.37124300148
100.371290633858
100.371300504015
100.371353820978
100.371405489157
100.371410812092
100.371500310409
100.371582872715
100.371680256333
100.371924180872
100.372151472006
100.372399870955
100.372576925858
100.372631034172
100.372626287237
100.372371328802
100.372022112835
100.371485545196
100.370897402097
100.370243702621
100.370145184108
100.369224951313
100.368808977312
100.368706771183
100.368662627009
100.368615740855
100.368450632856
100.368618706989
100.369083218282
100.369253922882
100.369178096616
100.369157908474
100.36866773341
100.369216661623
100.369547359289
100.3692448374
100.370358832885
100.370583021109
100.371222860367
100.371426082236
100.371354189751
100.371384484271
100.371361836786
100.371419591582
100.371479851286
100.371566096878
100.371588680344
100.371658573937
100.371736364405
100.372015056387
100.372268520247
100.37251867784
100.372695022182
100.372754340419
100.372724249502
100.372469915567
100.372087345316
100.371567559499
100.370981703213
100.370302077957
100.369445368317
100.369110121765
100.368988458617
100.368626529925
100.368498713783
100.368485292218
100.368297275061
100.367989792561
100.368226960273
100.368413154574
100.368145487137
100.368027954863
100.367792630632
100.367517981661
100.367267325744
100.367117163452
100.366994219108
100.367020640461
100.367375890568
100.367562506694
100.367648969326
100.36784986797
100.368006386944
100.367460277956
100.367528844411
100.367827511613
100.367929519836
100.369206655312
100.370202999816
100.37060684771
100.371164792533
100.371177544637
100.371354645024
100.371469788034
100.371589016335
100.371464311618
100.371452080605
100.371419497027
100.371490830235
100.37155985305
100.371640313597
100.371657474406
100.371741932125
100.371854516697
100.372168158574
100.3724358552
100.372674150313
100.372855309624
100.372904504301
100.37286509039
100.37258986202
100.372194905749
100.371645495324
100.37108000116
100.370428648882
100.36958194787
100.369259738412
100.368996841751
100.368930795359
100.368994965266
100.368717861621
100.368651883796
100.369066483111
100.368813403835
100.368559516675
100.368330336559
100.367964104176
100.367628784921
100.367031780715
100.367279641455
100.367733041504
100.368049485279
100.368161621934
100.368404969095
100.368400069663
100.368020234117
100.366847567915
100.367078865376
100.366940546802
100.367380790509
100.367583205524
100.367211493523
100.36689725642
100.366090381249
100.365389404459
100.363499079325
100.363471185249
100.364413339917
100.365422686207
100.366197743551
100.366847977734
100.367363214368
100.367985017963
100.366515483984
100.366021642938
100.365422726931
100.364465338611
100.363655286698
100.363175146573
100.361364818656
100.36090797012
100.357313230485
100.362982128228
100.364355827016
100.362799098439
100.361014037291
100.360873625423
100.360221208229
100.358955991636
100.357780990167
100.358465883313
100.360807519462
100.360597412247
100.361569073995
100.362380862769
100.363772294948
100.364738365898
100.365748781352
100.366504734061
100.367221149558
100.367741436835
100.368188125337
100.367792925886
100.368358888687
100.366975318534
100.371676213397
100.371888068914
100.371903796906
100.371679039234
100.371197306253
100.370428463022
100.369540418901
100.367767574612
100.366079062732
100.365472644866
100.369948255019
100.370871621795
100.367654363141
100.364250876917
100.362806285709
100.361833727552
100.354108062456
100.357161230698
100.355828818721
100.355523636481
100.35734564747
100.357158132794
100.365067037725
100.368375225574
100.370358319557
100.370365771298
100.370601371657
100.369872835495
100.370183391882
100.370515862078
100.370869831083
100.371171612597
100.371443120986
100.371611796128
100.371687209537
100.371550264182
100.371485200316
100.37148510278
100.371551876707
100.371640539607
100.371728581061
100.37173332875
100.371850105326
100.371952835001
100.37224099892
100.372538215847
100.37279506894
100.372976816307
100.373023714309
100.372978082694
100.372666393467
100.372272713807
100.371675786975
100.371106572818
100.370505502192
100.369687221912
100.369378122598
100.369130144904
100.369087302897
100.369190922878
100.369179156852
100.369516826681
100.369321579821
100.369380972058
100.369561792535
100.369657869783
100.369450927358
100.369270692632
100.368970987475
100.36911330426
100.369329854926
100.369129120466
100.368873925769
100.368531064978
100.369008062236
100.368645191662
100.368296861174
100.367917808913
100.367544560715
100.367112229949
100.366721557603
100.36588794603
100.366235155388
100.366782453103
100.367227454709
100.367460804213
100.367838247428
100.368218771852
100.368207381907
100.367828822568
100.367047996009
100.366288460465
100.365847192343
100.366104631803
100.36663119171
100.369303148043
100.370113054018
100.370362890745
100.37056368396
100.371716464177
100.371843143304
100.371646062678
100.371586409523
100.371616530713
100.371699170783
100.371781047165
100.371805069899
100.371957512412
100.37203348315
100.372283451404
100.372674851921
100.372955384629
100.373111370224
100.373141804043
100.373094307288
100.372773562687
100.372375133311
100.371798799641
100.371294042979
100.370651407626
100.369882661679