/*--------------------------------*- C++ -*----------------------------------*\
| =========                 |                                                 |
| \\      /  F ield         | OpenFOAM: The Open Source CFD Toolbox           |
|  \\    /   O peration     | Version:  v1612+                                |
|   \\  /    A nd           | Web:      www.OpenFOAM.com                      |
|    \\/     M anipulation  |                                                 |
\*---------------------------------------------------------------------------*/
FoamFile
{
    version     2.0;
    format      ascii;
    class       volScalarField;
    location    "1.6";
    object      p;
}
// * * * * * * * * * * * * * * * * * * * * * * * * * * * * * * * * * * * * * //

dimensions      [0 2 -2 0 0 0 0];

internalField   nonuniform List<scalar> 
79587
(
100.072336321826
100.074280774434
100.070905103766
100.075252188852
100.0822938888
100.082409477813
100.080365028135
100.080889916835
100.081002989571
100.081377235629
100.081664540253
100.081476693044
100.083355047749
100.083043148028
100.085381008362
100.085338873742
100.082021060836
100.077374338371
100.076356479876
100.076353501215
100.077343838151
100.077060840822
100.076279352945
100.077824373436
100.08423359946
100.084132184874
100.078475746186
100.076807249989
100.076780697866
100.075963770904
100.075836459981
100.07690450592
100.076816147375
100.078431069398
100.083893927853
100.083797561513
100.077623071177
100.076238373188
100.0770479806
100.07711891843
100.076215774074
100.076220518894
100.077288048612
100.081852706894
100.084996009401
100.084852432368
100.077953981152
100.077501821286
100.075215421296
100.074506563606
100.074634106285
100.07450142047
100.073908632665
100.07258685641
100.07370399754
100.075021549278
100.075120370171
100.074213610291
100.073247978529
100.072024085467
100.071694702487
100.072285122314
100.072209139044
100.07153365096
100.072035815507
100.073230923569
100.074060767041
100.075146049
100.075221524162
100.073806284851
100.072727983491
100.074082002347
100.074575033755
100.074679588447
100.074466030607
100.075171128989
100.077709600104
100.078431596304
100.076021907448
100.078923221556
100.081838271337
100.083189692112
100.080867203402
100.080676608446
100.082068959711
100.080350229267
100.077988785596
100.073758856743
100.079036121314
100.06780561019
100.056803907655
100.062572630715
100.063668513299
100.074613327308
100.07028390458
100.070913020725
100.073237355858
100.071362001757
100.069879880643
100.06929470544
100.072014806196
100.073831726682
100.069691288666
100.06892954784
100.071128545045
100.067867550007
100.066756176782
100.067987486259
100.067989199089
100.066802352142
100.067878330607
100.071071977257
100.068803631292
100.069238384895
100.073876670375
100.072452139898
100.069583609098
100.070023365896
100.071411174899
100.073231073835
100.07081634658
100.07012333772
100.074872749267
100.07489728504
100.071878532821
100.074990529356
100.081201716005
100.085890045216
100.078833996957
100.078777368118
100.083582793869
100.099526119402
100.069223639382
100.069744832407
100.054054299191
100.0270687875
100.028005470706
100.023831582975
100.024130738093
100.030418258021
100.061837993468
100.073045197198
100.068750609384
100.068490890525
100.075182681307
100.063400612345
100.064096781465
100.063931143137
100.064163987026
100.071919873167
100.067457548646
100.067439951631
100.07185755026
100.064182264941
100.06399543167
100.064131345261
100.0632622136
100.061964137061
100.06396614658
100.061923672415
100.022290841837
100.024708445173
100.025515629801
100.025152238134
100.024547905198
100.024635490187
100.026107838727
100.026715927823
100.030852151749
100.028100059222
100.029092635681
100.032609143356
100.032614988428
100.029143220501
100.028120692615
100.030665152298
100.030167352913
100.023561058853
100.024375235633
100.030943336523
100.031619454547
100.030217990005
100.029870987658
100.031146889267
100.031054068774
100.030235436047
100.03054731205
100.030700088271
100.025759499476
100.026600970942
100.027846546585
100.027804142054
100.026530409975
100.025625222108
100.026526458257
100.025857128052
100.030045098812
100.03138245059
100.031975310502
100.032131333881
100.03151200339
100.031618326967
100.032281311921
100.032165847731
100.031601343152
100.031791587348
100.03193338961
100.031955123393
100.031124006814
100.030816805833
100.030754857483
100.031002667437
100.030547386684
100.030345027401
100.031588039859
100.029849380134
100.029671610155
100.029855707624
100.029686998562
100.029980426081
100.030307565959
100.03019312957
100.030057608832
100.029848187114
100.030021460001
100.030006255818
100.030006505202
100.029888938335
100.031622035773
100.03157605656
100.031850741408
100.031745380518
100.029853812074
100.027524869207
100.027548875646
100.027431641579
100.027525816991
100.027461868429
100.027283520227
100.027316624119
100.027539729369
100.027602071041
100.027511125415
100.027666081486
100.027630870861
100.027697191786
100.027647856532
100.027618643598
100.029856911464
100.029966705363
100.027645134249
100.025722228519
100.025606351485
100.025619154909
100.025533205633
100.025623955063
100.025736948195
100.025849888877
100.0256090814
100.02539821408
100.02559273984
100.025533200967
100.025686012338
100.025670713936
100.025768065422
100.02573954244
100.025718644083
100.024023847697
100.024002230764
100.02386323349
100.023847933036
100.023754293857
100.023762276869
100.023653933905
100.023934939686
100.023835452693
100.023545401599
100.023799897314
100.023741138571
100.023905630349
100.023913974573
100.024041444818
100.024042264654
100.022287265586
100.022256027493
100.022168844061
100.021960144302
100.021884897026
100.021742088109
100.021701983225
100.021457447429
100.021146386336
100.021263330711
100.021638913372
100.021825934016
100.021827618618
100.022016182812
100.022052548118
100.02225201848
100.020147037662
100.020232351074
100.020163501722
100.019945529083
100.019607932625
100.019465681175
100.019222895531
100.019159643929
100.019102250352
100.018347547899
100.018485596117
100.019338683807
100.019408665422
100.019554994699
100.019775184735
100.019849277758
100.016704153557
100.017286831218
100.017490977548
100.017318848052
100.016837605897
100.016151782067
100.016189883019
100.01578518904
100.015407990304
100.015758166725
100.014404473169
100.014565293394
100.016160358832
100.015973204089
100.016528802923
100.016827976116
100.012515018484
100.011281287869
100.012596749337
100.013348887063
100.012978666327
100.01172982736
100.010167553657
100.011110269726
100.010698840288
100.008860925414
100.010592189042
100.007468210915
100.00774430162
100.011434720228
100.010096330608
100.012200520818
100.001259306515
100.000908199556
99.9949737498954
99.9981170443635
100.001454931182
100.000741556558
99.9964272387771
99.9932253135068
99.9985483382808
99.9986839489503
99.9913926280376
99.9962282158967
99.9922911230167
99.992805379011
99.9977580330719
99.9941088326172
100.001791201969
100.010172443132
100.00867413912
100.00208534975
100.008037104529
100.009384014429
100.008235723801
100.005410585263
99.9982070199983
100.004320555968
100.005981857878
99.9979777484628
99.9950001506823
100.026902296432
100.050040888996
100.050503394873
100.028580510879
99.9944179091032
99.9938713656668
100.087094588536
100.171651094319
100.108603215617
100.10984373391
100.096387955152
100.084863661279
100.074563658138
100.07168196064
100.067287387072
100.066210006273
100.077923820944
100.069328283091
100.067679138573
100.073747360607
100.060279826094
100.060767012012
100.065772211438
100.068600028148
100.080488060959
100.092695509022
100.184868384101
100.203521750897
100.205155569407
100.188733189223
100.19145055571
100.182128595754
100.207056505319
100.248724634525
100.159572423616
100.160493207188
100.211455109911
100.174865954942
100.199506486311
100.223561935333
100.163248452991
100.161159407051
100.21931707482
100.193649594967
100.166937421331
100.202042885268
100.150751717656
100.149923869238
100.197743582969
100.174475024838
100.185467889832
100.274763194156
100.321343087877
100.293061319644
100.294588746011
100.325690376604
100.299287874994
100.280751038359
100.404402762691
100.433497194044
100.38775497287
100.405894906412
100.407633649331
100.359100405694
100.301789645653
100.33292765274
100.279899996066
100.401970290682
100.434748728381
100.391974918374
100.394205388391
100.319954169302
100.322164608077
100.250266249084
100.296952336221
100.382968833117
100.428086035538
100.3966020684
100.401306176918
100.337092780039
100.289126838596
100.32967150748
100.30918914769
100.312332026684
100.335038210173
100.245678386737
100.244471516
100.334132341837
100.307948872773
100.3017654297
100.32033239915
100.278999304067
100.325691596468
100.309079894998
100.307253757545
100.322244032926
100.293746644775
100.292672853258
100.351186290909
100.400294539523
100.383642758431
100.39965253891
100.431361365566
100.431681828511
100.402181028329
100.372830980816
100.371820055083
100.44942411941
100.471120729525
100.462507664206
100.462929207759
100.46324757092
100.453172139436
100.43727004127
100.478895580259
100.478596885416
100.474985905162
100.471132348509
100.467458868676
100.462450642792
100.447818872321
100.446750183162
100.449248724742
100.458713822104
100.430221963415
100.430599152366
100.433007259799
100.439301433668
100.458403500885
100.456387284854
100.436878558366
100.396598538879
100.403827926214
100.382342427149
100.413764155079
100.402220088813
100.401510000337
100.411591514216
100.376501965186
100.396889822225
100.387536359937
100.390100922044
100.382608779394
100.381243485755
100.380422446461
100.399290738063
100.439548775409
100.443615129488
100.450065079842
100.463697949659
100.474885808336
100.472261838036
100.479087531089
100.479685869903
100.472683359209
100.471648452572
100.471525576097
100.476448666
100.472416608632
100.475506988204
100.475320218718
100.479562658039
100.474332080999
100.476714568046
100.478434226611
100.478254082715
100.478211498336
100.479799244786
100.477148123584
100.478864409208
100.477003564251
100.477307910963
100.474545367737
100.471714442028
100.468362984164
100.471884419566
100.462436641402
100.478756989296
100.477717592573
100.475516501044
100.473741963639
100.478413331492
100.473710202231
100.47294535209
100.478180131073
100.461614886631
100.464046644345
100.465554672506
100.477915221404
100.472065534801
100.470217407641
100.467913178055
100.451799822283
100.445551578628
100.451008477112
100.436785949449
100.436861540915
100.450154176623
100.444543697873
100.449224937157
100.429408376059
100.448198701661
100.449585815769
100.426912353723
100.419446258553
100.418441263934
100.419231262608
100.440842344155
100.45623160831
100.46441243224
100.463593980543
100.469971580866
100.475143449574
100.472900966984
100.477386281402
100.475610759568
100.475331439152
100.476139742753
100.477211155451
100.476759850027
100.475676799952
100.475410029511
100.475744092309
100.477140142108
100.476219553353
100.477548433904
100.47886679658
100.478617194761
100.47822274183
100.478562348775
100.478148673435
100.478722747462
100.478953406295
100.478271734605
100.478895626696
100.479190510841
100.479463421528
100.477905915704
100.47852499835
100.47849939072
100.47644847652
100.47600990886
100.473075007475
100.473398910912
100.475146445795
100.47686970013
100.476340364642
100.475222629097
100.476626736951
100.473565213039
100.472947240161
100.474855330335
100.479367667523
100.474536227028
100.474185940794
100.479123993533
100.476654971022
100.478859080814
100.473906256757
100.438122238809
100.432560495039
100.436410933336
100.448085125064
100.450499877943
100.438955596416
100.436442796904
100.433746884686
100.432891793927
100.427345605343
100.431797079819
100.422604239789
100.431292913557
100.448736496977
100.435183656931
100.439257240075
100.449843405339
100.472313788192
100.470623881899
100.475737923271
100.465748350764
100.468731124754
100.471496529836
100.472757760943
100.462798128996
100.452102022629
100.449198922318
100.42510284103
100.430806252878
100.436721349862
100.437177508421
100.429813136128
100.424517887365
100.438199462226
100.426681797619
100.425733654071
100.438871712824
100.442731412672
100.42775052466
100.424940782982
100.44741514876
100.479036921473
100.479590138251
100.467765908243
100.484996523113
100.469036156806
100.499124464142
100.481948486289
100.466871670112
100.470652173003
100.469313777777
100.472529067351
100.463943275364
100.466738724906
100.450987560702
100.431019923236
100.425160131064
100.430477693065
100.410405300325
100.417394304078
100.439852546287
100.438728446208
100.430959531666
100.42543917421
100.439745466809
100.430069548532
100.427925430122
100.436956309857
100.424554425949
100.425361947933
100.423305093444
100.426065243558
100.424027906561
100.446584381774
100.477637421371
100.478311795257
100.465741586927
100.481759070275
100.478553049548
100.435266576897
100.434236708458
100.437163040293
100.431440100525
100.437831472185
100.481364584651
100.482242889153
100.477768449033
100.492593951212
100.486599285305
100.466661265069
100.446332920335
100.465010763142
100.468713538558
100.465697213459
100.464519994506
100.465729710234
100.450065513114
100.430937219225
100.431283295014
100.431182051283
100.435899596255
100.435588402202
100.432000087973
100.434938225393
100.429484907794
100.421737115122
100.425019980425
100.437343129604
100.432129371404
100.445659277601
100.435813852691
100.435211890882
100.444230917226
100.430763826228
100.428746379756
100.422370833155
100.433578297557
100.433341478145
100.436667019342
100.434057143647
100.445332898006
100.466774963221
100.46640475179
100.470250368121
100.464172552908
100.491674897192
100.477038757023
100.426762795461
100.432545020688
100.435703907325
100.470133977143
100.469348218868
100.490527911697
100.485786094283
100.483615642985
100.465326500299
100.468090401451
100.460407885752
100.446237654965
100.423679740099
100.424278461307
100.42910371246
100.43634103041
100.436410711571
100.439841400932
100.440848021631
100.43294493371
100.43343963169
100.450759010579
100.444533757342
100.448171356027
100.446892562668
100.442497131459
100.441291528175
100.441841365082
100.439293908413
100.448278250265
100.447384892893
100.44183135109
100.441250543865
100.440963290296
100.432752280697
100.422300818661
100.420472487792
100.423320650732
100.430615661593
100.441067458871
100.460899678652
100.458566251761
100.458051979458
100.473342272631
100.479288897752
100.484366415171
100.471329844037
100.466687315944
100.466672658752
100.48747293113
100.461869539288
100.458998838879
100.46584562205
100.462934303611
100.45588796989
100.471104112419
100.47187651893
100.473251420906
100.471915382015
100.469359285756
100.468079745386
100.469076995569
100.470205383767
100.470097366847
100.470702246885
100.472495234677
100.473967853188
100.474494179219
100.474120215176
100.473325221962
100.473827412522
100.477024301071
100.486918508912
100.504017128943
100.536525683012
100.533061297214
100.477084024194
100.430328794975
100.382864780776
100.355864748917
100.375666188742
100.373598250163
100.371878778719
100.372443695497
100.37344799148
100.374424372657
100.375585141516
100.377059131616
100.378729945716
100.380368665836
100.381740828386
100.38268402966
100.383107743977
100.38296236929
100.38266740699
100.382195784791
100.38151790251
100.380616679912
100.379459123772
100.378096131383
100.376526184591
100.374743308938
100.372875884131
100.371111476234
100.369591755393
100.368404719092
100.367546212511
100.367010873024
100.366794550331
100.366864175931
100.367221722754
100.367904209798
100.368959959257
100.370377474475
100.372013350439
100.373453838955
100.374020867895
100.373922151531
100.373923482951
100.374006130894
100.374178362753
100.374368690233
100.37437246684
100.374481029041
100.374528131002
100.374758122469
100.37491542539
100.375102903661
100.375285328413
100.375281880916
100.375385780394
100.375269553702
100.375249363234
100.37519687299
100.375142207036
100.375075000402
100.374998921976
100.374872848586
100.37478171715
100.374628458954
100.374477425631
100.3743045536
100.374114687914
100.373881373076
100.373834627172
100.373782561489
100.374100284548
100.374273180372
100.374451650511
100.374601874267
100.374764152023
100.374870908197
100.374983249175
100.375068645253
100.375141964905
100.375197871575
100.375262742396
100.375343019436
100.375178227998
100.375047406088
100.374798440472
100.374652088695
100.374421498197
100.374404616096
100.374294865087
100.374295619509
100.374075182235
100.373922374655
100.373700568632
100.373792471569
100.373971227822
100.374206178992
100.374218663193
100.374320800623
100.374329492471
100.37455956146
100.374722500723
100.374994437095
100.375125643383
100.375074754624
100.374930802074
100.374620997393
100.374450511348
100.374239864703
100.374232026131
100.374136229475
100.374091373715
100.373876485827
100.373735463115
100.373570085058
100.373596597547
100.373776860247
100.373971915467
100.374038360955
100.374129784149
100.374151181902
100.374351970822
100.374506826565
100.37484148085
100.375023906306
100.374945690948
100.374748901833
100.374386660236
100.374253104971
100.374065369803
100.374001904982
100.373937987013
100.373866951815
100.373688623156
100.373562661698
100.373467207454
100.373409110449
100.373591359048
100.373750816209
100.373813391266
100.373802108816
100.374066528695
100.374123828819
100.374300563663
100.374647108646
100.374858565754
100.374758480161
100.374528380483
100.374160710119
100.37395715895
100.373878664319
100.373685475249
100.373706557419
100.373642922523
100.373508027561
100.373407761469
100.373355432887
100.373254461442
100.373419669834
100.373532755567
100.373586733987
100.373589228492
100.373746628552
100.373821990366
100.373994087281
100.374374718853
100.374625860955
100.374448872913
100.374202454773
100.373813168955
100.373670790497
100.373666082551
100.37354789495
100.373500027262
100.373460450564
100.373429845589
100.373342189355
100.373275677808
100.373229459089
100.373125658172
100.37326149227
100.373341474225
100.373374057456
100.373418659412
100.373455769918
100.373589886818
100.373716130952
100.374065406309
100.374290116636
100.374118641305
100.373900931497
100.373557399079
100.373438093848
100.373350404945
100.373318071943
100.373280187305
100.373264733271
100.373193523896
100.373155381682
100.37310041043
100.373022253414
100.373120156777
100.373187988612
100.37318380782
100.373229261292
100.37326807813
100.373327222002
100.373396334893
100.373729835102
100.373944223867
100.373678518792
100.37353034732
100.373254041615
100.373235215136
100.373166707347
100.373129705683
100.373100056493
100.373112861232
100.373054158313
100.373038950446
100.372961151895
100.372911682375
100.372978893926
100.373010603432
100.373011686079
100.373045932484
100.373074681684
100.373110111447
100.373102854506
100.373366337094
100.37349945054
100.373533030376
100.373385427766
100.37328905305
100.373273200189
100.373108468846
100.373013405109
100.373006293634
100.372897667972
100.372982579189
100.372936046589
100.372914422312
100.37291113771
100.372891087951
100.372821922613
100.37275191313
100.372624813429
100.372399946654
100.372609873126
100.372782196118
100.37278832803
100.372827242098
100.372828149778
100.372846166719
100.37286203391
100.372896937317
100.372822836137
100.372954879181
100.373014730994
100.37322584062
100.373101128313
100.373098827854
100.373035933144
100.372847356501
100.372682596809
100.372703194497
100.372625378143
100.372881996501
100.372839928974
100.372815315393
100.372751905513
100.372784741171
100.372748553896
100.372752261516
100.372710928553
100.372755395932
100.372725551467
100.372714963067
100.372547997181
100.372052702103
100.372525165599
100.372701853123
100.372688569046
100.372707202553
100.372699766748
100.372678896807
100.372699007706
100.372732747488
100.372709486427
100.372766264244
100.372715230561
100.372552745992
100.372558593362
100.372475934012
100.372514194687
100.372402414363
100.372544012991
100.372674178881
100.372594304828
100.372641395464
100.372658426412
100.372659216385
100.372664447927
100.372667539608
100.372653736951
100.372651545165
100.372489784325
100.371914713675
100.372488532061
100.372641139653
100.372634357246
100.372629530295
100.372630798316
100.372618595055
100.372613189996
100.372565195484
100.372497098186
100.372592276523
100.372552520693
100.372570731206
100.372569617468
100.372772835994
100.372746692852
100.372836584464
100.372911054025
100.372986305028
100.373027258898
100.373068985189
100.373109568581
100.373166459241
100.373245710009
100.373357707405
100.373481355506
100.373594144666
100.373706550597
100.37383345859
100.373943650947
100.374058881264
100.374168740992
100.374276435461
100.374363686349
100.37456971313
100.374658147414
100.374895399081
100.374964013988
100.375187662698
100.375343875417
100.375323255299
100.375462442659
100.375374727428
100.375285030279
100.375263731638
100.375050397647
100.37492948324
100.374868294114
100.374737964716
100.374639213916
100.374541286827
100.374438621133
100.374304904177
100.374193462492
100.3740773119
100.373948512601
100.373773852175
100.373650168718
100.373511058214
100.373602553372
100.373605493468
100.373893190833
100.374077447624
100.374233080078
100.374332988331
100.374457375149
100.374605059042
100.37470453086
100.374786547629
100.374881834423
100.374983740764
100.375053952447
100.375110910052
100.375254187429
100.375390326475
100.37543716468
100.375336631709
100.375176506151
100.374874658056
100.374461758539
100.374559064402
100.374629947136
100.374939209048
100.37523856469
100.375401192996
100.375495182382
100.375439265715
100.375344297734
100.375191074384
100.374944070591
100.374617560982
100.374526260041
100.374438482052
100.374236551015
100.374082400128
100.373763286936
100.373572093932
100.373418529658
100.373254839018
100.373115050088
100.372934495226
100.372797306179
100.37265586132
100.372503017094
100.372344864108
100.372535442645
100.372847529998
100.373052167849
100.373149075955
100.37328437554
100.373430340814
100.373592286925
100.373697579647
100.373853005824
100.373982071955
100.374174284451
100.374513060716
100.374543018072
100.374724247246
100.37486437711
100.375149520844
100.374985778239
100.374908457488
100.375080841129
100.374925579617
100.374731097162
100.374223337039
100.374143821337
100.374266722951
100.374439532247
100.374449336771
100.374500596836
100.374617797636
100.374696646974
100.374783848459
100.374979768063
100.37526823084
100.375426419801
100.375518046655
100.375489730254
100.375386675238
100.375175923927
100.374956181853
100.374859979428
100.374665742036
100.374375712708
100.374002260586
100.373901590463
100.373728461417
100.373480346932
100.373271297919
100.373110802641
100.372935653466
100.372708982897
100.372494083785
100.372285993939
100.372144945883
100.371939837512
100.371753456629
100.371517797187
100.371337032652
100.37119372339
100.371100518362
100.370887262459
100.370697615805
100.370801255244
100.371225265111
100.371455958914
100.371577916057
100.371602306901
100.371732004852
100.371888395694
100.372091043618
100.372254251877
100.372453523956
100.372598144636
100.372786237384
100.372964379703
100.373208294538
100.373465230369
100.373630031992
100.373974152407
100.37401127873
100.374196568642
100.374021337866
100.374267374612
100.374505795326
100.374534238405
100.374528462976
100.374255748731
100.374377222275
100.374309040896
100.374316440909
100.374473805464
100.374603736192
100.374603173359
100.374740098913
100.374726970666
100.374854820327
100.375025806365
100.375314456467
100.375458391207
100.375562637819
100.37550705362
100.375506721483
100.375476196069
100.375309045045
100.375059271673
100.374764718832
100.374468881683
100.374111083954
100.373676572918
100.373494959648
100.373398267804
100.373185235549
100.373066006795
100.372913650863
100.372751613793
100.372593689754
100.37245481343
100.372194081235
100.372124415881
100.371906194269
100.37169491326
100.371528317709
100.371252780383
100.371000852017
100.370757405759
100.370590112813
100.37037620211
100.370592827786
100.370888298164
100.371145637854
100.371386020431
100.371637192557
100.371757483064
100.371952231134
100.372176607678
100.372380612307
100.372488908283
100.372681495731
100.372878603245
100.373115272025
100.373264307619
100.37351825611
100.373516362371
100.373311547576
100.373536755701
100.373668075963
100.373888215629
100.373798912179
100.373909069003
100.374907675939
100.374762957274
100.374666654263
100.374348215881
100.37433118085
100.37451282642
100.374521751112
100.374703363903
100.374676690508
100.374775400946
100.374782086739
100.375027742993
100.375169983085
100.375437283172
100.375604969057
100.375544917657
100.375601521922
100.375552749159
100.375522879736
100.375343506729
100.375135807779
100.3747732889
100.374532876442
100.374340668841
100.374155132941
100.373910332078
100.373623935775
100.373291118965
100.373268912287
100.373188642987
100.373034256993
100.373058545868
100.37286829108
100.372726754174
100.372628579436
100.372478532923
100.372593563765
100.372375808415
100.372161835098
100.372003102864
100.371807553336
100.371592209066
100.371302610882
100.371028932514
100.370762632341
100.370473753508
100.370135351496
100.369771659152
100.369418907242
100.368949076926
100.369229269182
100.369669059232
100.370063321215
100.370290437649
100.3705262808
100.370791624277
100.37105831587
100.371348325459
100.37153090203
100.371724104507
100.371940822976
100.372256167929
100.372455480525
100.37244386796
100.372481273915
100.372637078246
100.3727908797
100.373064921748
100.373166926772
100.3731549469
100.373030778374
100.373023323038
100.373072558673
100.373065053451
100.373045065076
100.374046473406
100.371341355637
100.370201881893
100.36951180197
100.368708790101
100.368070551673
100.367591856171
100.367179096378
100.366957167089
100.366681794043
100.366185208246
100.365598081046
100.363010784653
100.361054851099
100.365349909696
100.365757340523
100.36620456667
100.367117368221
100.368367807249
100.369159564908
100.369779848129
100.370273584017
100.370696796496
100.371087164589
100.371332718213
100.371678090566
100.372402987767
100.371133603665
100.372961129777
100.370433171657
100.373868654041
100.373679361367
100.374056540054
100.374299423346
100.374359892095
100.374370582223
100.374517043511
100.37445734788
100.373904974971
100.373004971634
100.371878535233
100.370331151968
100.368514617687
100.367335697051
100.369434206385
100.370404748259
100.368100675309
100.365150950955
100.362653093869
100.361289698385
100.352214536148
100.355426153479
100.354700145993
100.358417623812
100.359660554951
100.361468039425
100.363747371554
100.362755534312
100.359909095171
100.360258010308
100.358877573502
100.360970973595
100.362374818732
100.362787076154
100.363413761966
100.364590594262
100.364564101318
100.367291378039
100.368546177115
100.369732037508
100.371482669818
100.372336099894
100.372472584869
100.372544346845
100.372498879018
100.37300316425
100.373210337587
100.373372654065
100.373508279293
100.373640401091
100.373793795973
100.374007234068
100.374290533135
100.374165234811
100.373882795829
100.374225234505
100.374222802478
100.374364172165
100.374480913616
100.37432886053
100.37442363885
100.374591689335
100.374690646519
100.374655561352
100.374713041663
100.374937622249
100.375095465862
100.375348788289
100.375486880423
100.375608984063
100.37563137534
100.375449056664
100.375229764003
100.37494187763
100.374977803603
100.375101142105
100.375363566998
100.375505975496
100.375554375119
100.375586443296
100.375522581495
100.37538971834
100.375355536342
100.375302831672
100.375157792844
100.374935440736
100.37460626084
100.374196403518
100.37400508272
100.373821539641
100.373712933468
100.373511267619
100.373395278785
100.373194842709
100.373358363737
100.373247643829
100.373377375159
100.373315009728
100.37320801562
100.373039826947
100.373196098618
100.373041578973
100.372949462765
100.372809561125
100.372657786063
100.372478156704
100.372267435874
100.372370982411
100.37213024515
100.371912529601
100.37169003136
100.371443423848
100.371160755215
100.370875195611
100.370377865311
100.370630408249
100.370982666924
100.371255488455
100.371500603179
100.371743440405
100.371974133028
100.372212328534
100.372064711662
100.372112939425
100.3723183819
100.372506807104
100.372734249619
100.372857251156
100.373031175285
100.372888051684
100.372944506319
100.373134818283
100.373213179699
100.373189823049
100.373119718847
100.372948634293
100.372782396044
100.372522235529
100.372510434871
100.372536096885
100.372909602726
100.373164124078
100.373561477195
100.373834038914
100.37424648044
100.374568500684
100.374671362227
100.374477085597
100.374554878928
100.374627176137
100.374802990506
100.374759428115
100.374873206864
100.374917955368
100.375073566682
100.375385077599
100.375293338506
100.37540798432
100.37550413435
100.375430197132
100.375458328222
100.375409330773
100.375229738795
100.37502262114
100.374917569354
100.374667866812
100.374342348351
100.374100487222
100.37373102658
100.373631877087
100.373499323535
100.373485438059
100.373410222186
100.373458550024
100.373350738015
100.373576993669
100.373444187823
100.37362549077
100.373523392553
100.373498254031
100.373315545392
100.373415191082
100.373287129159
100.373195136721
100.373108811163
100.373008064603
100.372800761559
100.372782875081
100.372603215623
100.372411666241
100.372193055015
100.371976250275
100.371750077212
100.371473743479
100.371174960357
100.370865328851
100.370525815256
100.370116144218
100.369739100325
100.370100403186
100.370500932428
100.370711269804
100.37103300341
100.371335183336
100.37160444065
100.371838694473
100.372079241128
100.372312121325
100.372580551275
100.372773872303
100.372650284318
100.372755849424
100.372890522806
100.372977884156
100.37311078733
100.373315692208
100.373203128941
100.37321050129
100.373287409488
100.373466612112
100.373354552368
100.373312368266
100.373082195552