/*--------------------------------*- C++ -*----------------------------------*\
| =========                 |                                                 |
| \\      /  F ield         | OpenFOAM: The Open Source CFD Toolbox           |
|  \\    /   O peration     | Version:  v1612+                                |
|   \\  /    A nd           | Web:      www.OpenFOAM.com                      |
|    \\/     M anipulation  |                                                 |
\*---------------------------------------------------------------------------*/
FoamFile
{
    version     2.0;
    format      ascii;
    class       volScalarField;
    location    "2";
    object      p;
}
// * * * * * * * * * * * * * * * * * * * * * * * * * * * * * * * * * * * * * //

dimensions      [0 2 -2 0 0 0 0];

internalField   nonuniform List<scalar> 
80683
(
100.075001345023
100.076970025169
100.07381073923
100.078137361432
100.085164018511
100.085299216244
100.083351202801
100.083901081341
100.083885229937
100.084264515058
100.084761192441
100.084529528646
100.08625407126
100.08586910867
100.088409562797
100.088411268914
100.084982843533
100.080168981171
100.079083507785
100.079035587765
100.080040454685
100.079897643841
100.079115634959
100.080556764575
100.087004883437
100.087055669947
100.081342754128
100.079537629573
100.079433418529
100.078721350213
100.078590396717
100.079576557467
100.079527437109
100.081278168082
100.086826905632
100.08665738176
100.08045983385
100.07907820505
100.079810276061
100.079763290863
100.078880136793
100.078929033657
100.080051548048
100.08478934299
100.088059652943
100.087909808774
100.080966938406
100.080454299921
100.078261597463
100.077744311969
100.077672051414
100.077302328056
100.076768820007
100.07563356683
100.076725462355
100.077877017884
100.078039486068
100.077203588645
100.076169452091
100.075017107872
100.074644925107
100.07523446856
100.075159298764
100.074482557577
100.075035234182
100.076164257688
100.077139661784
100.078120271798
100.078091779885
100.0768998443
100.075800165302
100.076975407442
100.077400728439
100.0777302326
100.077732867235
100.078233692802
100.080670766768
100.081378722266
100.078773050115
100.081929087952
100.085046938077
100.086700056531
100.084543140318
100.084293157109
100.085457207331
100.083452503702
100.080974395081
100.076778675115
100.082079146322
100.070176083955
100.058146295224
100.063868868985
100.06499368224
100.077179788874
100.073080267392
100.074296272713
100.076452227169
100.074457472996
100.073044415299
100.07253185943
100.075106458332
100.076607313619
100.072543220729
100.071602761702
100.073938600763
100.071143842988
100.070024223573
100.071053643546
100.071056946801
100.070072767633
100.071154983076
100.073883877581
100.071553702186
100.072351499333
100.076833506831
100.075621324848
100.07285582921
100.073220568343
100.074548196598
100.076503800879
100.074237924793
100.072944275945
100.077491389546
100.07752511399
100.074528307183
100.078068867694
100.084304959247
100.089703818169
100.083070996058
100.082978447329
100.087260058556
100.102554906013
100.071167964193
100.071708407672
100.055583094981
100.029120414041
100.030037440224
100.02558067592
100.025991042859
100.032379047453
100.063127985653
100.075472645138
100.071581406613
100.07138577235
100.078285225739
100.064566245764
100.065316969535
100.065246651399
100.065437995231
100.075144165809
100.070295518675
100.070283322428
100.075087399928
100.065460604133
100.065278209487
100.065301215392
100.064381698189
100.06321111322
100.065262832509
100.063480380187
100.023976956791
100.027133683755
100.028134814108
100.027990489084
100.027202550515
100.027351249499
100.028816014015
100.02947394473
100.032788286188
100.02990552422
100.030914101972
100.034501113932
100.034500864415
100.03090824843
100.029839848996
100.032517229589
100.032017587921
100.02529763505
100.027003082815
100.033759430655
100.034193215266
100.033073856488
100.032957893417
100.034070952775
100.033963627292
100.033080812424
100.033473976229
100.033777359645
100.028528037718
100.029300636673
100.030497429459
100.030447024282
100.029158061924
100.028265019138
100.029181553681
100.028443762019
100.032767163992
100.034001948355
100.034708216467
100.034956818328
100.03413009737
100.03416787097
100.035104011885
100.034970669575
100.034328052452
100.03460195561
100.034813303634
100.034821203418
100.034060100055
100.033645292643
100.033569710109
100.033831844131
100.033329688518
100.033126142786
100.034253137071
100.032427730992
100.032213055901
100.0323788823
100.032534341792
100.03203234321
100.032020604685
100.032627980027
100.03264617171
100.032498872119
100.032783999091
100.032819388948
100.032833601623
100.032694514161
100.034433582447
100.03435543456
100.03462272013
100.03446816789
100.032497357089
100.030162881663
100.030086279564
100.02986130545
100.029805947292
100.029785705901
100.029792870753
100.029762161037
100.029862327907
100.030122977822
100.03019214904
100.030501286913
100.030531732144
100.030623699568
100.030554752336
100.030465047455
100.032621779503
100.03267777138
100.030394427405
100.028568563226
100.028266335655
100.028089840443
100.02780568123
100.027702681474
100.027500082498
100.027983321769
100.028080724848
100.027793381019
100.028182253869
100.028336385148
100.028694370809
100.028787492863
100.02893200527
100.028864738574
100.028729112924
100.027312825278
100.02698374493
100.026529898739
100.026189587635
100.025766439779
100.025619274175
100.025346218226
100.025253682078
100.025526275565
100.025948254823
100.026418430396
100.026730493701
100.027202920598
100.027412304662
100.027614911964
100.027543363337
100.026442624543
100.026016248299
100.025355004282
100.024636974493
100.024005680711
100.023326575591
100.023052772692
100.022863782226
100.022455714639
100.022829481816
100.023769702071
100.024410430845
100.025084187349
100.025799479135
100.026182161762
100.026518539091
100.025598426368
100.02548584326
100.024715485277
100.023489802501
100.022266125703
100.021191293224
100.020108039077
100.019565149948
100.01940517795
100.018704492774
100.019304088914
100.020950318418
100.021894679102
100.023199413911
100.024373853443
100.02502367405
100.023713173285
100.024740446141
100.024533628233
100.023114542637
100.020910008488
100.018769457465
100.017270855956
100.015543327991
100.014208656653
100.014125350264
100.012898713516
100.0138689977
100.016915695105
100.018253066011
100.020701233016
100.02275251336
100.020739436844
100.02172594639
100.023635860731
100.023424069381
100.020788047697
100.016702694478
100.012583172217
100.010911745345
100.008298525479
100.005081762977
100.006002362998
100.003922136252
100.00512358587
100.01036434348
100.012001885112
100.017203506603
100.006816783668
100.012335085293
100.010526541952
100.014941047767
100.016126773077
100.011318398371
100.00167110226
99.9944364029012
99.9960162855195
99.9923901885142
99.9828250716567
99.9860934781823
99.9853926423088
99.98739617729
99.9937379628739
99.994849587957
100.004923755669
100.020118365061
100.028643593465
100.029028774997
100.0393808865
100.035195945227
100.026415065513
100.016006176413
100.000425412308
100.001324506151
99.9974573868971
99.9869971624639
99.9817467321182
100.014397053961
100.037703074913
100.040487206737
100.022501950685
99.9878999929116
99.9839750299601
100.078218940907
100.158095231992
100.094413816243
100.098413791914
100.090595048565
100.082681758165
100.081492839552
100.085190819469
100.097733322206
100.110111888197
100.129275032822
100.107753875218
100.093332245979
100.091289629358
100.066743250868
100.057256870934
100.053138123521
100.055809987599
100.065864746844
100.079415718459
100.169433274625
100.189585371797
100.193046263002
100.180466527788
100.192242035185
100.193885630708
100.227497665125
100.279592364506
100.183233902115
100.205307243997
100.268225562425
100.234736949518
100.268032543668
100.290825261272
100.219837713826
100.199257762528
100.247011488538
100.212128981332
100.174379418542
100.204909166295
100.147101929029
100.138738375111
100.187207051725
100.163691559187
100.172031013752
100.265367838001
100.312417268848
100.278987517763
100.281328886054
100.319207557076
100.303126471963
100.279648248424
100.386824805525
100.414823154799
100.379682283072
100.40519589437
100.410396887706
100.363014709918
100.30989207986
100.356219615841
100.295738498744
100.405159246394
100.429131853232
100.40604642951
100.421710742959
100.448004728311
100.406337049461
100.34892197492
100.374482690374
100.29637915544
100.334084413838
100.415932001107
100.445743021418
100.451880140768
100.457273832898
100.463921018046
100.466152134326
100.465848085389
100.467630984012
100.470719091132
100.472232665702
100.470291526813
100.468705932474
100.469891947782
100.469792999753
100.47006372111
100.470586391434
100.47075055612
100.471137895339
100.472456420145
100.471594724283
100.474444378693
100.470013766115
100.473850614115
100.464420451933
100.469459398257
100.466922949199
100.435956533128
100.409490176649
100.377320141834
100.358121296517
100.373581661302
100.371341583667
100.370829106162
100.371538995942
100.372273342627
100.372932613234
100.373643265525
100.374417248271
100.375184189686
100.375901603977
100.376571320409
100.377122556766
100.377529206284
100.37669964311
100.375935444669
100.375193733178
100.374426149387
100.373580851129
100.372620189231
100.371548392521
100.370414746648
100.36928827541
100.368230230526
100.367295171459
100.366529552554
100.365978655417
100.365695450073
100.36574165768
100.366177800073
100.367017332682
100.36821030993
100.369560955139
100.370770474563
100.371322086394
100.371288414695
100.371196224041
100.371209465551
100.371318412484
100.371490018186
100.371601832622
100.371679599799
100.371683939962
100.371937174479
100.372084752462
100.372462818006
100.372656736927
100.37281321003
100.372746793392
100.372631066252
100.372514134988
100.37242020321
100.372284414772
100.372343551688
100.372300289482
100.372518308024
100.372630757184
100.372721172665
100.372549382017
100.372346555772
100.371960171726
100.371781136567
100.371553836049
100.3715603545
100.371502676666
100.371388303044
100.371235442513
100.371174038511
100.371096381377
100.371059057333
100.37115173024
100.371288733779
100.371388683915
100.37145485161
100.371459444232
100.371637252047
100.371791494734
100.372195051437
100.372429991499
100.3726102755
100.372433508774
100.372259651661
100.372021984143
100.371625780926
100.371526698905
100.371360285333
100.371339619728
100.371278011444
100.371205590911
100.371084612257
100.371050478139
100.371008252987
100.370947500204
100.371019023296
100.371128967394
100.371188544239
100.371234055574
100.371257211079
100.371413924508
100.371517330569
100.37187168057
100.37208735429
100.372233513167
100.372201760352
100.372084358445
100.371885979452
100.371677108214
100.371603520935
100.371588160528
100.371871823655
100.372056687344
100.371896222661
100.371716441739
100.371378029477
100.371256149877
100.37114973392
100.371145850033
100.371105926531
100.371064563468
100.370970038229
100.370962646616
100.370917780363
100.370866763136
100.370918071466
100.371003158759
100.371009161034
100.371069991981
100.371087632245
100.371152706699
100.371216133204
100.371551015365
100.371724250937
100.371493738544
100.371334141185
100.371071707563
100.371078252449
100.370999831731
100.370976838967
100.370933375946
100.370951927705
100.370878330497
100.370893339719
100.370830602404
100.370795236317
100.370830896777
100.370884064788
100.370878814324
100.370912786067
100.370908906943
100.370965368544
100.370957793437
100.371183530008
100.371303607163
100.371358211465
100.371196973856
100.371114364939
100.371072775671
100.370965764068
100.370899034391
100.370885299206
100.37081867824
100.370863287646
100.370837367525
100.370807569805
100.37080919307
100.370790441884
100.370809658106
100.370717836391
100.370687367841
100.370715634719
100.370698021942
100.370717831374
100.370720353678
100.370755138618
100.370738281936
100.370854147612
100.370877743425
100.371105348482
100.371020429993
100.370968546624
100.370742018786
100.370744359455
100.370703323156
100.370851465757
100.370761032949
100.370752448046
100.370667190878
100.370702437708
100.370705554669
100.370669883681
100.370634550308
100.370673405485
100.370643608304
100.370656080113
100.370612572146
100.370545812557
100.370457462948
100.370237130794
100.370476938242
100.370577671189
100.370579572595
100.370610700736
100.370594061966
100.370606005556
100.370622885196
100.370650870153
100.370651672041
100.370706830374
100.370667463414
100.370658909859
100.370631670111
100.370491787738
100.37062618822
100.370483739161
100.370588659989
100.370650141032
100.370549457578
100.370567487179
100.370565979526
100.370557641737
100.370539025847
100.370557362686
100.370512584539
100.370502290546
100.370386939042
100.3700040315
100.370417687904
100.370496625846
100.370483963137
100.370507975661
100.370495412528
100.370504897018
100.370507241625
100.37049851878
100.370460366605
100.37051700796
100.370415510867
100.370452951648
100.370502766677
100.370530056197
100.370482653772
100.37038668659
100.370398719354
100.370093373711
100.369986024216
100.370209331441
100.370105161996
100.370317323927
100.370143300761
100.370361390742
100.370438229557
100.370397406057
100.370425433286
100.370409418831
100.370431590636
100.370427378266
100.370421002355
100.370447515055
100.370447019844
100.370383940332
100.369969716726
100.370430895781
100.370436521615
100.370428433718
100.370439335762
100.370408546151
100.370428539076
100.370442264921
100.370469657988
100.370458679422
100.370495504831
100.370543226354
100.370594349391
100.370630831473
100.370696747372
100.370683217118
100.370712876669
100.37075845438
100.370802345035
100.370846972384
100.370903874451
100.370960488796
100.371033783675
100.371108479381
100.371207005746
100.371297849975
100.371409580377
100.371602949251
100.371708680428
100.371808484681
100.371794500219
100.372049179257
100.372206804267
100.372581491564
100.37276768215
100.372919792724
100.372895302147
100.372766742615
100.372551213615
100.372159045672
100.371830085828
100.37169033696
100.371553390056
100.371450937532
100.371574516272
100.371716061958
100.37191214068
100.372041191104
100.3724357781
100.372311972843
100.372152500095
100.371944586305
100.371648517582
100.371642755225
100.37151034649
100.371399556921
100.371260499902
100.371138786799
100.37119760826
100.371269914481
100.371476947518
100.371697154127
100.371809731241
100.371899790761
100.372091829059
100.37203496917
100.371889435474
100.371675417006
100.371471588118
100.371421380459
100.371264429405
100.37118362002
100.371069973164
100.370908124007
100.370592420057
100.370215160405
100.370145706381
100.369940058061
100.370091668545
100.370255532093
100.370543304327
100.370866992531
100.37057841525
100.370339473341
100.370151170042
100.369929469753
100.370107900064
100.370137071241
100.370393667591
100.37049851178
100.370366379866
100.370417663573
100.370409539402
100.370526445721
100.370526922712
100.370557324251
100.370543675904
100.370501478021
100.370763243684
100.370768275036
100.370780335677
100.370776318384
100.370804997366
100.370833370516
100.370891590906
100.370951177071
100.371036670206
100.371105782106
100.371206212037
100.371296764093
100.37151013495
100.371715782788
100.371823798177
100.371924886347
100.371888304317
100.372177545703
100.372346830863
100.372712425973
100.372866022866
100.373037977831
100.372975692313
100.372975787448
100.372956992823
100.372679717436
100.372342446108
100.37217630339
100.371941159478
100.371534848139
100.370996859483
100.370806977052
100.370692251917
100.370504375552
100.370392405718
100.370267811103
100.370172571442
100.370065346532
100.370010816847
100.369946150111
100.370149065921
100.370385664392
100.370524118967
100.370619841405
100.370720444001
100.370761796905
100.370863010776
100.370958744049
100.37108178179
100.371190604308
100.370897703555
100.371217906902
100.371596590706
100.371598702659
100.371912074409
100.371847698849
100.371630859641
100.371244713577
100.371352083946
100.371489482823
100.371407259183
100.371626466936
100.371837627527
100.371925744159
100.372024408132
100.372006307292
100.372310906788
100.372465635631
100.372810430573
100.372954956465
100.373102453718
100.373068789176
100.373054568997
100.372781239112
100.372478279316
100.372042043805
100.371623072366
100.371150874775
100.370432916583
100.370118062394
100.369952697328
100.369786796923
100.369580127026
100.369402704654
100.369225720784
100.36908204656
100.368982597477
100.369231774017
100.369410144142
100.369627660654
100.370009778174
100.370039672478
100.370263817322
100.369974412343
100.370290196297
100.370503305278
100.37029561473
100.371036310216
100.371252141258
100.371471502827
100.371625868573
100.371496833904
100.371595386424
100.37168657965
100.371954155833
100.372008425139
100.37212057298
100.372118278093
100.372413350822
100.372567312992
100.372895087813
100.373046086397
100.373216132652
100.373174574637
100.373172314628
100.372890835072
100.372616431671
100.372193657742
100.371737361842
100.371310010739
100.370643240693
100.370353565865
100.370022545859
100.369852434035
100.369806807888
100.369560928458
100.369396719329
100.369208390944
100.369027638701
100.368787367422
100.368557961205
100.368355632584
100.368178921193
100.367985448001
100.367740966073
100.36752916458
100.367852767699
100.3681296041
100.368306885087
100.368462959192
100.368629778256
100.368823219486
100.369076438982
100.369297471453
100.369464001014
100.369599112549
100.36980313029
100.369648406295
100.369469083602
100.368955284772
100.369008228981
100.369202715701
100.36921064486
100.369933402396
100.370673727234
100.371015320012
100.371284535689
100.371439558575
100.371326908193
100.37141031098
100.371502299884
100.371382974812
100.37133834214
100.371509732258
100.371567356173
100.371667179439
100.371778227541
100.372083005192
100.372096114374
100.372221727057
100.372222437273
100.372513851959
100.372672381635
100.372983158868
100.37314523395
100.373354674947
100.373234421926
100.373302403892
100.373016629855
100.372737398244
100.372310794356
100.371881260267
100.371427235009
100.370794695474
100.370487137217
100.370044429232
100.370003729291
100.369840365146
100.369914464333
100.369914367162
100.370086154244
100.369886539203
100.369692556886
100.369529891383
100.369351133408
100.369138337881
100.368884798416
100.368643665693
100.368398580551
100.368144507965
100.367808832984
100.367435957766
100.367102815917
100.366838932735
100.366416155905
100.366663354277
100.36702344622
100.367290412572
100.367634318239
100.367895900601
100.368106146021
100.368363102947
100.368613807809
100.368881096195
100.369075762278
100.369253937646
100.369414954946
100.369657036576
100.369619151729
100.369437182734
100.369054799691
100.368869369328
100.368666202842
100.368467024314
100.368715687462
100.368412920699
100.368025141515
100.367742415123
100.367364653415
100.366808472449
100.366132233918
100.365216282924
100.363978317054
100.363206139431
100.363241088449
100.363753534634
100.364416453541
100.365055761738
100.365782335085
100.36637703667
100.366943073478
100.367442548918
100.367890653045
100.368331834825
100.369020548223
100.367332668539
100.366311259558
100.365752206396
100.365339833454
100.364810801071
100.364475280351
100.364232061302
100.363999946181
100.363218408171
100.362520173683
100.359404156069
100.357343474206
100.361288296137
100.360898420727
100.360747965716
100.358617784452
100.359250906352
100.357895151818
100.359667402237
100.360660757544
100.361003394734
100.361843863565
100.362942852272
100.363878894424
100.364885609274
100.365594887685
100.366409008043
100.367026635572
100.367618864071
100.368093246411
100.368503291454
100.368879476825
100.369336965236
100.368966634296
100.369583301414
100.367776693985
100.37086493565
100.371072315211
100.371099307817
100.371362981813
100.371604381057
100.37158789951
100.371335821104
100.370657692657
100.369732754228
100.368496435535
100.366849104516
100.365255131088
100.364038154493
100.366311706131
100.367304692391
100.363891342456
100.361700084
100.359850585146
100.352005852035
100.355008419455
100.353345864373
100.356627336538
100.358173313808
100.3665219361
100.367672382975
100.369723403288
100.36965685008
100.369894344553
100.370077290244
100.370281688712
100.370567555645
100.37083900066
100.371041398352
100.371175766092
100.371056334698
100.370201992824
100.36882270155
100.367477734247
100.366389332733
100.365727443054
100.365502381519
100.365652745948
100.366105595516
100.366774040783
100.367609719183
100.368590814841
100.369684064979
100.370839940044
100.372003572847
100.373113759928
100.374121335617
100.375025094257
100.375867183819
100.376702221114
100.37757982909
100.378544415652
100.379650111275
100.378488829691
100.377457200381
100.376643547247
100.375931441827
100.375260756401
100.374588730789
100.373874411142
100.373074835168
100.372151868914
100.371111245242
100.370008387877
100.368918262503
100.367902187132
100.367030246719
100.36635948525
100.365954149663
100.365848465118
100.366093779841
100.366727192662
100.367709046407
100.368942345853
100.370243136523
100.371200274551
100.371510649771
100.37141203753
100.371524130367
100.371629043438
100.371723829046
100.371744050461
100.37187721076
100.372169355771
100.372166094029
100.37231713987
100.372353508472
100.372671169501
100.372842184621
100.373081904447
100.373297976709
100.373300150238
100.373418678622
100.373478670738
100.373418583265
100.373140087973
100.372873477285
100.372366234394
100.372020091466
100.371774265293
100.371512112584
100.371123798342
100.370693442481
100.370252668491
100.370136933253
100.370020383396
100.370097415016
100.370267904615
100.370203772047
100.370515883821
100.370393805543
100.37020326256
100.370329608992
100.370108443817
100.369949082048
100.369794044974
100.369577241134
100.369332960505
100.369090288476
100.368821931887
100.36852043231
100.368255397286
100.367757739662
100.367984596685
100.368339688602
100.368644941896
100.368900885422
100.369143662148
100.369396296957
100.369613674379
100.369776289235
100.369951527276
100.370188529245
100.369977170873
100.37002368461
100.370070195335
100.369802150497
100.369321629493
100.368843490085
100.368636014764
100.368836642227
100.369008011565
100.368833729427
100.371544733502
100.371298408524
100.372068614463
100.37201399345
100.371770058487
100.371989414175
100.37192603887
100.372108013129
100.372393753764
100.372326787631
100.372474143267
100.372584276597
100.37293838118
100.373283495115
100.373487213766
100.373590689423
100.373479302437
100.373308837826
100.373221441465
100.37301819499
100.372549017019
100.372189573859
100.371663065432
100.371256271064
100.370842651862
100.370420151163
100.370279263412
100.370044259407
100.370238118858
100.37010125188
100.37026873579
100.370411871497
100.37065315874
100.370582305965
100.370822029871
100.37065273068
100.370670225669
100.370516335026
100.370385372292
100.370240023882
100.370066286005
100.369872699767
100.369680759679
100.369463082635
100.369210706563
100.368933523393
100.368646215306
100.368313424088
100.367903462217
100.367452245832
100.367113989884
100.366661899037
100.366982884358
100.367410892147
100.367850394327
100.368067166664
100.368394057235
100.368706448357
100.368998066975
100.369252567666
100.369489100049
100.369705696645
100.369895690477
100.370073193098
100.370266160979
100.370479618208
100.370627226606
100.370513646516
100.370396685811
100.370395231985
100.370090448268
100.369134668352
100.368110302732
100.36773399955
100.367985302128
100.368343397017
100.369092161799
100.36961978031
100.369474966794
100.368448453236
100.370239096403
100.368608028954
100.37110601126
100.371265694871
100.372225794095
100.371585664955
100.37166059741
100.371608519497
100.371205564285
100.37069921285
100.370083040347
100.369324118977
100.368676059476
100.368060669766
100.367399342401
100.367304655606
100.365750928732
100.364986949484
100.36372284386
100.362817551453
100.361090441303
100.360567492659
100.359684515086
100.359009114175
100.349943755375
100.352685310267
100.352046323146
100.353158583418
100.354264801962
100.354652751801
100.35421133181
100.35478388954
100.355392027869
100.361135632061
100.358289028974
100.35892562753
100.356922626065
100.355743912241
100.355767351991
100.35763888471
100.358774579223
100.359507929585
100.359322714103
100.357485737153
100.357847698965
100.360237717529
100.361367974106
100.362943278928
100.362651168833
100.36403519647
100.36511022063
100.366206330437
100.367007144549
100.36772156059
100.368246552132
100.36867569253
100.36903125667
100.369381880058
100.369563679549
100.369558082447
100.369670175432
100.369683167305
100.369061018554
100.367874729869
100.370383525566
100.371939011215
100.372412363508
100.37211621816
100.372143643221
100.372244809532
100.372260968322
100.372591413032
100.372543541384
100.372688762572
100.372814790208
100.373181924017
100.373297374878
100.373664824532
100.37378717687
100.373706100776
100.373738043442
100.373625133058
100.373575095963
100.373551388061
100.373384213499
100.373093546194
100.372720408606
100.372352688161
100.372292542068
100.37165029526
100.371346441106
100.371041934364
100.370933872759
100.370677586545
100.370460849631
100.370226640446
100.370376193817
100.370390766638
100.370606516484
100.370772069667
100.370696060213
100.370892073635
100.370827947411
100.370971487433
100.370851124782
100.370747997851
100.370596149121
100.370589586007
100.370382062572
100.3702269715
100.370040975896
100.36984860013
100.369617253772
100.369393146793
100.369111502078
100.368814712704
100.368517434754
100.368162354927
100.367746458937
100.367410399246
100.367625809871
100.36805263653
100.368406794236
100.368715993769
100.369014761367
100.369294444005
100.369527779546
100.369746156886
100.369953161336
100.370147478812
100.370314663965
100.370486514198
100.370491581403
100.370553826088
100.370370081795
100.370173550528
100.370412001247
100.369586471489
100.369820822799
100.368797192564
100.369235477899
100.369700078049
100.369777768457
100.369973083886
100.369742393622
100.370066966868
100.368602453748
100.371728257465
100.372904965025
100.373167230307
100.372558995893
100.373371011995
100.372639444049
100.372405183044
100.371881537077
100.370699649331
100.369911748193
100.369058102673
100.368181988167
100.36754910596
100.366809074519
100.366002195647
100.366140777895
100.367107328702
100.367767585774
100.368618027484
100.369562631993
100.370548564026
100.371405365497
100.372103484015
100.3723199619
100.372681067325
100.373006186977
100.373015915828
100.372002357906
100.371818102201
100.371857525366
100.371870849838
100.371761799012
100.371919016028
100.37206687958
100.372010603697
100.372324086107
100.372356576668
100.372403210064
100.372649496253
100.372729493188
100.373022964174
100.373371029335
100.373544544674
100.373632424849
100.373540511116
100.373532314554
100.373562109862
100.373459721223
100.373159674279
100.372709894464
100.372326222252
100.372693000231
100.372866862006
100.373114851044
100.373469256484
100.373604507889
100.373681485877
100.373740093665
100.373641967578
100.373519317731
100.373279167362
100.373210665442
100.373027690844
100.37268202681
100.372628361461
100.372508277441
100.372537034529
100.372174631717
100.372191700922
100.37210158389
100.371943595927
100.371997023138
100.372133717571
100.372081048367
100.372410849076
100.372452398922
100.372548262875
100.372565343458
100.37205326986
100.372178962754
100.372322836502
100.372479237113
100.372805342222
100.372899389665
100.373182142266
100.373605289928
100.373761039779
100.373726805201
100.373555631601
100.373296711652
100.373183919421
100.372937975246
100.372879552494
100.372782630712
100.372608301664
100.372343266077
100.37203545754
100.37160473106
100.371436330514
100.370974816006
100.370761710228
100.370608262819
100.370358283899
100.370508715299
100.370426452409
100.370753989927
100.37062523069
100.370757787367
100.370845840497
100.370969620809
100.370932148644
100.371065136281
100.371022507917
100.371089618002
100.370988866215
100.370869438899
100.370726408376
100.370550550151
100.370361517855
100.37018436711
100.369975120081
100.369768955293
100.36950981024
100.369272096317
100.368972371971
100.368652663528
100.368333842698
100.367946485273
100.367491482342
100.367151245567
100.366650345107
100.366029367135
100.365390976539
100.364794324596
100.363955220614
100.363217175959
100.36407042958
100.364851795301
100.365471779176
100.3661213149
100.366675233048
100.367093202361
100.367271247159
100.36691434164
100.366627711501
100.366050938617
100.365415213288
100.364746859884
100.363757766905
100.364574002803
100.365037396715
100.365706638027
100.366249999441
100.366590243101
100.365929117239
100.365408233743
100.364519889151
100.365077168957
100.36556485317
100.366110493813
100.366705958355
100.367216812498
100.36762152772
100.367766106811
100.367241429904
100.366799274338
100.366407794946
100.36596944576
100.36516416602
100.365673985195
100.366271968561
100.366549428886
100.366903761102
100.367295097904
100.367796357451
100.368196160695
100.368489423718
100.368738440759
100.368978405033
100.369231805792
100.369446759425
100.369628093367
100.36979679952
100.369753998658
100.369417582373
100.368982801384
100.368285867531
100.368500073838
100.368679603493
100.369121030604
100.369636594589
100.369966340786
100.369898512739
100.369989181757
100.37013957445
100.369475086648
100.368971718664
100.369381632829
100.368899716718
100.36833496077
100.367579498175
100.36673325952
100.365629058188
100.364444355384
100.364213612509
100.365655890967
100.366886511696
100.367809190233
100.368601307641
100.369179339615
100.369657021406
100.370005284615
100.369759192158
100.370099414158
100.370268284435
100.370412017003
100.370316010391
100.370042198509
100.370096084251
100.369774250517
100.369956948803
100.370667566792
100.369234256071
100.37140749537
100.371952473529
100.372901687682
100.372571640179
100.373446192053
100.373105009136
100.372998384361