/*--------------------------------*- C++ -*----------------------------------*\
| =========                 |                                                 |
| \\      /  F ield         | OpenFOAM: The Open Source CFD Toolbox           |
|  \\    /   O peration     | Version:  v1612+                                |
|   \\  /    A nd           | Web:      www.OpenFOAM.com                      |
|    \\/     M anipulation  |                                                 |
\*---------------------------------------------------------------------------*/
FoamFile
{
    version     2.0;
    format      ascii;
    class       volScalarField;
    location    "0.2";
    object      p;
}
// * * * * * * * * * * * * * * * * * * * * * * * * * * * * * * * * * * * * * //

dimensions      [0 2 -2 0 0 0 0];

internalField   nonuniform List<scalar> 
81489
(
100.002801982616
100.007626103957
100.000836966519
100.005105503837
100.010420660713
100.007094643061
100.006716996493
100.00676909075
100.006939207488
100.006555149869
100.007160311308
100.010246564822
100.014090911754
100.012925442356
100.011127588262
100.012132144923
100.009279686895
100.006896331676
100.006914464931
100.009293403888
100.012106207525
100.011083847862
100.012891468731
100.014045677695
100.010224833603
100.007129942196
100.006524441306
100.006914353178
100.00674198449
100.006685924028
100.007061177996
100.010400572385
100.014211622638
100.013058934932
100.011120422664
100.012132323324
100.009320612311
100.006960619367
100.006943751835
100.009307300076
100.012155714343
100.011167251123
100.013097981582
100.014250454626
100.00740874557
100.00669697959
100.002419952745
100.002931194997
100.004288099448
100.004707236356
100.004735014724
100.004310919651
100.002912324069
100.002385092826
100.006667234855
100.007380670661
100.00510332476
100.004036647436
100.004737064114
100.004975017701
100.004928506895
100.004602336421
100.004263394941
100.005238676272
100.007371127856
100.006644583289
100.002360460745
100.002870914629
100.004267293475
100.004692104773
100.004662240131
100.004237093027
100.002893607609
100.002398211543
100.006675844118
100.00739707444
100.005241184883
100.004276790083
100.004618578318
100.00494592043
100.004993001542
100.004752371553
100.004051861462
100.000813668434
100.002945835181
100.002854482815
99.9915502059739
99.9939452012997
99.9940791691489
100.004388336107
99.9990094677029
99.9970947023004
99.9995153448097
100.001671768923
100.001701984891
99.9995183092922
99.9970457383819
99.9989690703379
100.004358699191
100.004368123948
100.000841380712
100.000802889385
100.002940498687
100.001785269378
100.001761667436
100.00298980953
100.000885919685
100.000727380249
100.004319787751
100.004367975558
99.9989557408489
99.9969984409569
99.9994695015353
100.001656208645
100.001628147192
99.9994572873554
99.9970424238174
99.998994107276
100.004396975461
100.00435396456
100.000725411943
100.000898341138
100.002996404505
100.001778863843
100.001803312844
99.9988652538483
99.9988168234884
99.9915936436278
99.9617933154012
99.9617134158561
99.9561154135549
99.9570884765094
99.9622541081874
99.9926360075627
99.9996657111018
99.9990004015431
99.9989963254321
99.9995919020732
100.002223608044
99.9940783874355
99.9939079716153
100.007638206509
100.002848056565
99.9988388078212
99.9987928079021
100.002571036972
100.007218761894
99.9938983384818
99.9940813550163
99.9925786867507
99.9926163511387
99.9940855843717
99.9939359643954
99.9562497233725
99.9560275131938
99.9575347139365
99.9575225447045
99.9560084716367
99.9565359642809
99.9573619896241
99.9573832612536
99.9623034476158
99.9926002872793
99.9866992736813
99.9699901156263
99.9635592023774
99.963398741326
99.9609431669803
99.9619982691852
99.956554457533
99.9571887033374
99.9561703434515
99.9617400785778
99.9915230348526
99.9915664061252
99.96182060842
99.9563022332788
99.9572658319784
99.9623440745327
99.9622951956365
99.9571680715861
99.9565535680135
99.9620091122587
99.9618781722379
99.9611529625125
99.9611618519273
99.9619043544363
99.9620219957218
99.9609486968562
99.9622672544903
99.9622634168351
99.9628903496497
99.9628528738653
99.9618974076688
99.9560288750803
99.9575487919871
99.9575631360795
99.9560510912789
99.9565719429411
99.9574169908546
99.95739504968
99.9609594705846
99.9622704057705
99.9629015888422
99.9628489158473
99.9623387611711
99.9623413069934
99.9628634829702
99.9629028234916
99.9608164239193
99.9606322319184
99.9606338620506
99.9608176928721
99.9607640600559
99.9606335105596
99.9623361591604
99.9611669230866
99.9611578001572
99.9618723837196
99.9619838947359
99.9609542889225
99.9622651547806
99.9606382295728
99.9606396205733
99.9608287269983
99.9607726276521
99.9606444280613
99.9606402108934
99.9607703612676
99.9584013592097
99.9584307543233
99.9583562122024
99.9583575687716
99.9584310541431
99.9583986852078
99.9583633676313
99.9583659267079
99.9606362098656
99.9623325801394
99.9628404840357
99.962881359235
99.9608163352836
99.9584324706059
99.9583648627119
99.9583668191451
99.9584417553402
99.9584140983753
99.9583758839933
99.9583687173408
99.9564341181334
99.9564595378963
99.9564702834411
99.9564078715834
99.9564092451464
99.9564697206784
99.9564647066706
99.9564288717635
99.9564293039
99.9564569294608
99.9584015582223
99.9607662102135
99.9613328011915
99.9587012691196
99.9567304718832
99.9564698996794
99.9564157840878
99.9564218032598
99.9564854710671
99.9564794006525
99.9564406327266
99.9546667307326
99.9546627483741
99.9546763749387
99.9546750929242
99.9546336811412
99.9546377917341
99.9546753785158
99.9546811303628
99.9546559884144
99.9546589627889
99.9546682947079
99.9546759799449
99.9546414893081
99.9546533289136
99.9546960776587
99.954698134139
99.9527632933133
99.9527342319145
99.9527299365284
99.9527295070237
99.9527330862683
99.9527043444207
99.9527160846935
99.9527336209915
99.9527417053392
99.952727746631
99.9527360147225
99.95273427256
99.9527341183452
99.952712294833
99.9527372949736
99.9527574957922
99.9504538948166
99.9504303935112
99.9503602446576
99.9503510811244
99.9503620381787
99.9503710743061
99.9503236062575
99.9503524856027
99.95041094172
99.9504033102036
99.9503619496195
99.9503797425309
99.9503891185204
99.9503681709253
99.9503280846207
99.9503863890409
99.947135650037
99.9472395124164
99.9471823230159
99.9470726885815
99.9470237549567
99.9470415527023
99.9470721497269
99.947018654137
99.9470783648112
99.9471656521491
99.9471437462619
99.9470627845696
99.9470855077771
99.9471225199771
99.9470449551291
99.9470121806865
99.9419521598777
99.9421232975008
99.9419667872838
99.9417749297935
99.9418762899208
99.9418531185141
99.941707777678
99.941746100179
99.9419764250431
99.942053328467
99.94185927331
99.9418375484483
99.9420439911407
99.9420535096569
99.9418336868832
99.9416651710874
99.9270711481348
99.9285607771102
99.9284351773053
99.9269737144085
99.9267689495785
99.928620816127
99.928630337043
99.926818358336
99.9268798488992
99.9283189535492
99.9283191978027
99.9268197661466
99.926863855626
99.928420306665
99.9284120487479
99.927047770586
99.9408709699551
99.941432171681
99.9381389805938
99.9377744321027
99.9409938479056
99.9406423763291
99.9372489237647
99.9372883045603
99.9406553237339
99.9410178862235
99.9377415123299
99.9376934544985
99.9409694851864
99.9406052459322
99.9373479442933
99.9374779443715
99.9964973549523
100.050199215198
100.006863165577
100.006651644671
100.049562039367
99.9961182112165
99.9950445180175
100.048901629033
100.005829623471
100.006424729845
100.049980262307
100.082138943155
100.081767258996
100.049628507621
99.9961288477651
99.9961266447662
100.120279561931
100.219941550525
100.177055053876
100.177120917998
100.150051847383
100.14392188987
100.142489920131
100.005813130083
100.048839626139
100.079895638139
99.9951450282574
99.9950070929391
100.048809195312
100.005841049169
100.006408798067
100.049953773314
99.9964291915694
100.082440326564
100.082551951322
100.177203547469
100.150335012926
100.144305255055
100.142914857915
100.1479055941
100.174743613562
100.174915209694
100.148093854592
100.14300985733
100.144029037862
100.150101603227
100.242058862473
100.281278624635
100.259795260703
100.259735265656
100.281104851892
100.27101739651
100.241856664004
100.337274421426
100.372329303205
100.344758150434
100.335668516953
100.33585010494
100.343881218559
100.279725173529
100.24015880849
100.271006334706
100.33701209448
100.371509431202
100.392613185584
100.399587860457
100.402265943694
100.406627304673
100.408626671879
100.409074967618
100.409327491822
100.409493813284
100.409479007221
100.409403511076
100.409182238155
100.40887340973
100.40855123793
100.408260802886
100.407969179169
100.40772599
100.40772101139
100.408852093223
100.412780733568
100.421444808014
100.439104642546
100.464681411323
100.504584239147
100.49992844009
100.43587484502
100.378925852581
100.321227987579
100.288727096137
100.309770077721
100.309061387415
100.306662344929
100.306838332879
100.307787576972
100.308799519693
100.310033102708
100.311694732691
100.313712732436
100.31581526352
100.317632356663
100.318838585127
100.319346897512
100.318120103066
100.316615377927
100.314900256622
100.313088209523
100.311228214016
100.309353120499
100.30756700297
100.306059071225
100.304961757697
100.304381882867
100.304331862648
100.304582038226
100.3047494095
100.304816467037
100.304907384501
100.304971937254
100.304966859193
100.304882117017
100.304716897865
100.304498279808
100.304241077045
100.304161850069
100.304365084624
100.304653415063
100.304780469
100.304777861831
100.304831695109
100.304825818192
100.304877222425
100.304894853861
100.304925789139
100.305017177791
100.305095382603
100.305041623641
100.304923351893
100.304843877074
100.304763189657
100.305001084458
100.304946327577
100.304990882823
100.305051606062
100.305006052915
100.304930248243
100.304899921796
100.304886903917
100.304832227079
100.304838996906
100.304789048845
100.304792140318
100.30466643069
100.304412005763
100.304711391502
100.304799777415
100.304803765111
100.304848004388
100.304842142807
100.304898864008
100.304907533066
100.304936466334
100.305000577424
100.30501868566
100.304988435113
100.304915017634
100.30493897168
100.305024033946
100.305018142923
100.305018648885
100.304990771591
100.304942071281
100.304915931361
100.304915183916
100.304852964753
100.304857586414
100.304814871622
100.304813087705
100.30471453854
100.304513173347
100.304768555383
100.304814693715
100.304830698997
100.304875157288
100.304871537766
100.304944874652
100.304937115201
100.304969210436
100.304961412572
100.30497994594
100.305068398779
100.30504388265
100.305002350866
100.304655779216
100.304335251665
100.304434859247
100.304804333288
100.304764749276
100.305012391802
100.305067986285
100.305081962052
100.304993055107
100.305007651642
100.3049713274
100.304897172543
100.304902211848
100.304852464289
100.304841576842
100.304772908982
100.304762249256
100.304551109187
100.304241598759
100.304655598691
100.304766506303
100.304803996367
100.304868701395
100.304879263603
100.304936068947
100.304931642078
100.304979351408
100.305015660779
100.3049863263
100.305023257555
100.305092325302
100.305095611224
100.305021365742
100.304848172849
100.304933839425
100.305133563352
100.305083927388
100.305119438727
100.305110041761
100.305041745463
100.305012354705
100.305024102565
100.304958997491
100.304924056022
100.304928753624
100.304965026606
100.304889956883
100.304847889661
100.304812762535
100.304691115472
100.304394052796
100.30476795253
100.304857016666
100.304890324212
100.30492075882
100.3049778686
100.304992929462
100.304986842937
100.305042006901
100.305048817989
100.305074753297
100.305140269684
100.30518894119
100.305093050948
100.305194167026
100.305166189159
100.305090179187
100.305097867341
100.305203405144
100.305250710273
100.30522977733
100.304986319477
100.304719072444
100.305090821222
100.305174653217
100.305390161012
100.305460798483
100.305485442151
100.305325742071
100.305340110125
100.30525337962
100.305119580325
100.305095228166
100.30506349354
100.305018065877
100.305009766972
100.304981255468
100.304953028762
100.304928124829
100.304901756571
100.304769845099
100.304549470523
100.304849652294
100.304940773506
100.304962138371
100.304973845936
100.305004884526
100.305027296351
100.305048662757
100.305088116845
100.305110259756
100.305123640571
100.305170267809
100.305334717235
100.305450237524
100.305508964599
100.305469306885
100.305442532287
100.305388599061
100.305400054364
100.305266587168
100.305201254079
100.305165923964
100.305104561607
100.30505810605
100.305048260577
100.305059051709
100.305008494959
100.304988720351
100.304962935596
100.304837154676
100.304717117171
100.304928299719
100.304979895364
100.305045660322
100.305051461869
100.305099734288
100.30514255146
100.305162091595
100.305233527122
100.305278242429
100.305431730874
100.305468951545
100.305390402447
100.305187814058
100.304872451699
100.305179447866
100.305241102444
100.305409925388
100.305424097764
100.305442615275
100.305417259015
100.305325528883
100.305254523463
100.305215274081
100.305262723606
100.305181302309
100.305155128293
100.305107563761
100.305090514256
100.305041060812
100.305018904126
100.304985400786
100.304773189406
100.304672148282
100.304940565977
100.304959774379
100.30508701565
100.305100690753
100.305141308765
100.305179630521
100.305216900202
100.305233860361
100.305287123892
100.305383822643
100.305343138259
100.305459051685
100.305487345383
100.305417100019
100.305458148883
100.305439186042
100.305470059313
100.305496365995
100.305457669592
100.305298186683
100.305442454848
100.305526965523
100.305548114396
100.305557732257
100.305514175325
100.305430520912
100.305367959452
100.305345537491
100.305285856628
100.30525870157
100.30522471607
100.305188338675
100.305153110633
100.30512539654
100.305072416792
100.304883091084
100.304811670889
100.304695859944
100.304642853003
100.304583684425
100.30443396204
100.304356376104
100.304285903123
100.304252715661
100.304206550716
100.304157284048
100.304236267501
100.304492094739
100.30471780933
100.304890722304
100.304982879201
100.304997525475
100.30493706334
100.304848624499
100.3047759202
100.304629596781
100.304386355429
100.304347648669
100.304801220828
100.305771100757
100.307178184573
100.308889749865
100.310697789124
100.312483140986
100.314213636342
100.315854938097
100.317295160273
100.318477344178
100.319325104095
100.320220070953
100.320674066593
100.319792338782
100.318545877162
100.317009727569
100.315256961524
100.313401957279
100.311505338803
100.309604081034
100.307788838044
100.306231151729
100.305068981258
100.304414113091
100.304311553075
100.304562225226
100.304737984837
100.304800401607
100.304890722491
100.304958576985
100.304958733094
100.304877981192
100.304717569258
100.304502674067
100.304248068495
100.304160045422
100.304350659412
100.304617220413
100.30476491849
100.304774697956
100.304807079894
100.30484238173
100.304869995336
100.304891189168
100.304916312155
100.305030276911
100.305151120781
100.305132202297
100.305019157659
100.304977031816
100.304659703377
100.30401829934
100.303169160797
100.303104223982
100.303085640385
100.303128758405
100.303328088073
100.30395150943
100.303986663791
100.303920197574
100.303946493605
100.303986134489
100.304586834369
100.304529475794
100.304523185422
100.304579586564
100.304812331781
100.304923338523
100.304525799645
100.304087721837
100.303472987333
100.302715390832
100.301522444567
100.301981495707
100.302880183807
100.303060005513
100.303748946531
100.303745809529
100.303142980395
100.303571259488
100.303725275093
100.304285678564
100.304270994894
100.304199408147
100.304631113786
100.304720801557
100.304819232199
100.304391825433
100.303870931336
100.303356959228
100.302428144128
100.302815089724
100.303441346097
100.303561077498
100.304227783181
100.304529010451
100.303879504467
100.304144061088
100.30455698315
100.30472609126
100.305153666012
100.304921842436
100.304589144616
100.304869642061
100.305016699778
100.305078858101
100.305019452356
100.305026829895
100.304996114545
100.304998557468
100.304969906294
100.304950459938
100.304919297762
100.304875854869
100.304845820611
100.304810012751
100.304803211566
100.304794193141
100.304783234093
100.304776260755
100.304773652847
100.304776672963
100.30477281476
100.304832029597
100.304820746441
100.304867366998
100.304890559691
100.30492087496
100.305022419307
100.3051254235
100.305086630781
100.305142863731
100.305124469873
100.305021966054
100.30485621804
100.304847992431
100.304854015974
100.30491872543
100.305028081252
100.305152317309
100.305132434099
100.305016445683
100.304719807867
100.304072851104
100.303208751857
100.303238205698
100.301918730936
100.300480341707
100.298267867566
100.298266784436
100.299785877353
100.300400608992
100.301728461007
100.301565878155
100.300226791497
100.300528809488
100.300793734567
100.301195733159
100.299467217688
100.29806555865
100.296055681093
100.297714402761
100.298379971638
100.299245932023
100.2998782689
100.300429971569
100.301336417898
100.301669427824
100.301300296209
100.300507654706
100.29969535036
100.299248245224
100.300188794159
100.299678945019
100.302413253726
100.304370524883
100.304568055312
100.304700307492
100.304691797897
100.304636707126
100.304621676653
100.304586586815
100.304624428828
100.304582496915
100.304570760544
100.304607191307
100.304761560006
100.304766812871
100.304806097819
100.304838004474
100.304853415923
100.304903350536
100.304902682486
100.304919719093
100.305027544465
100.305155108364
100.305127255757
100.305027021598
100.304704346174
100.304074416675
100.303222917479
100.30181916247
100.300394524383
100.298100341846
100.298089269181
100.295215627142
100.291840958004
100.292172283703
100.292344771244
100.293404095584
100.29421251153
100.295139492051
100.292594447942
100.290312658611
100.292106377661
100.293836806448
100.294939739792
100.29622047872
100.296420854599
100.295442284271
100.293929568173
100.293196641574
100.294887850459
100.296458283672
100.29684771458
100.296488373082
100.298681319856
100.301713208602
100.304197393026
100.304438102784
100.304381517069
100.303968132893
100.304310278856
100.30428338823
100.303816303334
100.304250629949
100.304251000942
100.304571145032
100.30460758726
100.304761925058
100.304767302891
100.3048061868
100.304838360004
100.304854823826
100.304873296405
100.3048918257
100.304919323494
100.305029485535
100.305153988121
100.305124802976
100.30503174302
100.304724107573
100.304084923538
100.303264234928
100.301881611307
100.300467003634
100.298227593005
100.295377170787
100.292034000197
100.291815596839
100.288073614436
100.283953484553
100.261117983036
100.260769356942
100.263670294883
100.280630606189
100.284311471176
100.283966203408
100.288068287434
100.288385582998
100.288391033732
100.282067034483
100.285645254341
100.288003263024
100.284305598784
100.279592857871
100.271422527671
100.279013004958
100.28453206218
100.284183525864
100.287215666453
100.28933587493
100.287209220594
100.290628366999
100.292366589339
100.293915708347
100.295112614309
100.295038640813
100.293285107009
100.291738761135
100.291179145809
100.292742962312
100.293925186702
100.293337300772
100.293090965338
100.291198971423
100.292429475076
100.291653356676
100.292143568669
100.292152193939
100.291960503038
100.291849199925
100.291601445582
100.293916562043
100.292075350858
100.294806577957
100.291967908495
100.29202658785
100.291711927062
100.29141729552
100.291168555754
100.29248621073
100.293018176308
100.293635269107
100.292400765091
100.291262376392
100.29240194873
100.289978451498
100.28926076015
100.289830429706
100.291156046532
100.288509066219
100.289188934165
100.290673958344
100.298623917345
100.297675306079
100.299590033391
100.299085796828
100.300598978707
100.301688693595
100.300223754618
100.301245359952
100.301359741145
100.297860900047
100.298673851933
100.298044476894
100.294728590025
100.29609847166
100.296202259706
100.297313218128
100.296737127643
100.296943621992
100.296229757109
100.294967133054
100.294991266948
100.293927804402
100.298340982523
100.302029136595
100.304041555507
100.304424273055
100.304756014052
100.30476183102
100.304672280328
100.304607956642
100.304494897763
100.304278294818
100.304167494565
100.304088755611
100.304059712352
100.304060164641
100.30435128101
100.304617701226
100.304765756611
100.304775439635
100.30480761557
100.304843454943
100.304871978201
100.30486930755
100.304891111702
100.304923964655
100.305022648571
100.305123319359
100.305085367389
100.304969466482
100.304673932029
100.304013205093
100.303160421863
100.301874811315
100.300405027534
100.29822415932
100.29544268922
100.292294377661
100.288451190962
100.282074278769
100.28066702518
100.264373728262
100.245029990509
100.166128338296
100.181888155508
100.198971025308
100.203411621685
100.200750260384
100.196718805938
100.208207024987
100.204875519586
100.199730186262
100.210470342305
100.206338990776
100.199594915465
100.209137717841
100.205540390232
100.198575227971
100.207743975147
100.204228634341
100.197328953254
100.20625273142
100.202842163793
100.196080555347
100.204088174558
100.20177666823
100.202367191859
100.201789588366
100.200522032254
100.200560746566
100.200783373922
100.200319472164
100.200282829518
100.200615851259
100.200124197745
100.199807602324
100.200378726217
100.200288414179
100.2000242077
100.200103127489
100.200247648001
100.200391905919
100.200913451717
100.200590579136
100.20026966721
100.199964887701
100.200551615512
100.200445210111
100.200101385538
100.199322218044
100.199260269679
100.199976407313
100.2003793051
100.200517774689
100.199942943474
100.20025985071
100.200588349257
100.20091247244
100.200383864476
100.200238983528
100.200102606164
100.200037651522
100.200291771432
100.200381290082
100.199802150381
100.200117524355
100.200610562189
100.200281497284
100.20033081544
100.200732783177
100.200524622162
100.200506331229
100.201785328487
100.202362384448
100.201774558317
100.204087166139
100.203365768194
100.204417209501
100.202663490724
100.201830291659
100.203567980136
100.203221243311
100.201652599773
100.201279243618
100.201567451029
100.198983464211
100.199801830946
100.200377906919
100.200480852655
100.200551940443
100.200302681903
100.19976497506
100.200224270748
100.199350739794
100.199436861885
100.200377399699
100.199536086144
100.201304165904
100.200894592062
100.200760243659
100.200473853066
100.200618030778
100.20048487755
100.200450018235
100.200494234405
100.200924477735
100.200301112383
100.200198622936
100.200164029116
100.200294100445
100.200818203199
100.20041773998
100.200402133243
100.200436520545
100.200564063727
100.2001716837
100.200281923797
100.20076004202
100.201537849961
100.200197042817
100.200119759444
100.199870071775
100.199884717554
100.20015811086
100.200206352534
100.201539882684
100.200770019696
100.200295653623
100.200178566528
100.200566222348
100.20074863336
100.20093341376
100.200933005087
100.200744706818
100.200601217461
100.200637786334
100.200637793739
100.200605514712
100.200731416685
100.200422085849
100.200404866144
100.200439429458
100.200956711833
100.200222370159
100.200429911857
100.201862966012
100.20141062652
100.201531277014
100.201146436755
100.202461017809
100.201744566283
100.200903688753
100.201292168932
100.201482665958
100.20150446691
100.201271112335
100.200881339147
100.201738193422
100.202471769702
100.20114406764
100.201527764904
100.201410500208
100.201863450039
100.200847153086
100.202703895404
100.201960156794
100.201852867593
100.200804165801
100.200729633429
100.20007488234
100.201065414942
100.199749451363
100.200871716042
100.201438359203
100.200429339356
100.201661461323
100.201202595773
100.203166990238
100.204205733662
100.201053573222
100.19607557098
100.202832110339
100.206262416839
100.197318679585
100.204225462597
100.20776185779
100.198568578468
100.205547248843
100.209170031457
100.199573766179
100.206343442545
100.210549715556
100.199758427139
100.204906466604
100.208093360386
100.196761225229
100.201076560298
100.203229962033
100.200367132121
100.196777438315
100.196747979454
100.202974168162
100.200181954975
100.198492923142
100.192964150345
100.197742431117
100.197819758803
100.19308258004
100.187251180838
100.18696480609
100.168776998332
100.23936551231
100.238771669384
100.169537912684
100.167035992442
100.182207653472
100.198882797389
100.203291943687
100.192575917275
100.18713730943
100.192192027419
100.190051475426
100.196069439368
100.206331396591
100.2019079022
100.201316270553
100.206467865641
100.203313535376
100.202232647552
100.20529405447
100.20238709077
100.201596762366
100.203591617767
100.201220858598
100.200781277158
100.202066391217
100.19997736768
100.203792731596
100.20285160512
100.201073248171
100.201651635435
100.203014667313
100.201666678836
100.201384873521
100.200366106997
100.20251112114
100.202785955012
100.200073294175
100.20413542844
100.204842945359
100.201510196057
100.20513187248
100.206832907033
100.202723481996
100.20641863226
100.207944581936
100.202691184721
100.201892140293
100.187666843223
100.177035434117
100.178012983241
100.185337736335
100.183130426888
100.182614732303
100.191968397132
100.181717451841
100.183984372463
100.177057191546
100.177833375601
100.187698210825
100.230231675908
100.254098357534
100.231280322946
100.162218554379
100.164047460738
100.186740585595
100.154477131435
100.139583588641
100.205559764029
100.246563562511
100.270545741449
100.280235907348
100.286359054946
100.288576954703
100.28836807741
100.283270428512
100.274825724146
100.261146013253
100.267298773945
100.276134924946
100.283581258028
100.287211425015
100.290343961401
100.292937812128
100.292245243565
100.299558464734
100.302216300895
100.30201067608
100.302158682338
100.302159310415
100.302022253179
100.3040897916
100.30436649117
100.30462567262
100.30477800994
100.304774095698
100.304834123717
100.30482191458
100.304827649933
100.304879651908
100.304896591182
100.304928561022
100.305018171195
100.305094090093
100.305041681764
100.304920858615
100.304608453638
100.304007143243
100.303144103231
100.301847233961
100.300502309057
100.298461042567
100.296051622622
100.293302442698
100.29011515554
100.285618839163
100.280806386361
100.274422373984
100.254132893107
100.229727953208
100.187622110178
100.178127424644
100.177184216888
100.184074074016
100.192714720746
100.186664809821
100.191128262309
100.190022881016
100.196197471134
100.206375745743
100.201841054186
100.201285269773
100.206481009258
100.203330733425
100.202242283906
100.205306666935
100.202385228581
100.201609553332
100.20361357286
100.201216224473
100.200794395193
100.202065545567
100.199970531567
100.201746437034
100.204198850573
100.203204696816
100.201653922119
100.201271248145
100.201591823073
100.201830164531
100.203557679567
100.203358702675
100.204435754164
100.202671799975
100.202207984932
100.202946378024
100.201319839052
100.200645204118
100.202175883261
100.203791272353
100.202846032234
100.201074694624
100.20166515949
100.200428823812
100.201444215367
100.200876162056
100.199756186589
100.201074548662
100.200079404304
100.200727727796
100.200800704669
100.201864006193
100.201984492606
100.202725991943
100.200858962333
100.200242933734
100.200861543506
100.200268767371
100.200778465047
100.200537082957
100.200913115918
100.201486148419
100.200976033097
100.200706476409
100.20061396004
100.203008269088
100.205046687678
100.20266596621
100.201778638692
100.202033691946
100.202411171344
100.202290670795
100.202693856623
100.202689207341
100.202263508868
100.202391486927
100.202019243053
100.202645806565
100.205062190395
100.203021493444
100.202974010192
100.203778253449
100.202831442245
100.201899183044
100.201889824014
100.202361109991
100.201480511982
100.200603794748
100.202107819421
100.201060127973
100.200095041773
100.202434021491
100.20290091134
100.202051319154
100.201597008579
100.202765368248
100.204559524621
100.203406674771
100.202381591844
100.203598576241
100.20694180414
100.205669117063
100.20191851847
100.202514048813
100.208782802235
100.208956507716
100.200847201507
100.188652358845
100.183227545909
100.178463022376
100.181337184784
100.181594973422
100.185086659136
100.186764625318
100.183321059544
100.174596487457
100.174629831461
100.174962042486
100.17141016275
100.16125744808
100.163546610563
100.179018768051
100.176884335069
100.177455272674
100.196867463895
100.195744245958
100.206322891609
100.220677522125
100.213725112815
100.21905982977
100.241427259522
100.262869750116
100.244018753811
100.265205847122
100.275926283051
100.280960952439
100.274740317478
100.273424131406
100.280908570373
100.286777489941
100.290442489498
100.293052936104
100.292272188312
100.292565304314
100.290708245686
100.300193445946
100.299293675095
100.298858856894
100.301216065572
100.300872694891
100.300918032003
100.303019700473
100.30303862089
100.303017352684
100.302510518968
100.301999831683
100.301540496911
100.301868232313
100.300940169754
100.301152233225
100.300561077641
100.30056690876
100.301031268979
100.301145670273
100.301190649279
100.300985154851
100.301026117291
100.301314741493
100.301622569113
100.302198935917
100.302461341275
100.302409426393
100.302196762392
100.302071682743
100.301121290982
100.300544076388
100.300864406682
100.301011358574
100.301042294188
100.300855334515
100.3006091718
100.300459390452
100.300230337695
100.300187227619
100.300115083869
100.30016591815
100.299599514163
100.299311145557
100.299843848689
100.300144296482
100.300369834617
100.300475305423
100.300450427317
100.300191762812
100.30042176753
100.300799712314
100.300939148885
100.300601735774
100.300568469446
100.300331080254
100.300390107171
100.300510718576
100.301021361959
100.300734824858
100.300688433543
100.300345459125
100.299932171235
100.29942879701
100.300256901944
100.300942391715
100.300828836645
100.299920675063
100.300356145692
100.301029216721
100.301037452529
100.300895356791
100.300267916431
100.300108597103
100.300600566832
100.30108139713
100.301268651229
100.301169768051