/*--------------------------------*- C++ -*----------------------------------*\
| =========                 |                                                 |
| \\      /  F ield         | OpenFOAM: The Open Source CFD Toolbox           |
|  \\    /   O peration     | Version:  v1612+                                |
|   \\  /    A nd           | Web:      www.OpenFOAM.com                      |
|    \\/     M anipulation  |                                                 |
\*---------------------------------------------------------------------------*/
FoamFile
{
    version     2.0;
    format      ascii;
    class       volScalarField;
    location    "0.1";
    object      p;
}
// * * * * * * * * * * * * * * * * * * * * * * * * * * * * * * * * * * * * * //

dimensions      [0 2 -2 0 0 0 0];

internalField   nonuniform List<scalar> 
80683
(
100.065435343804
100.067404689569
100.064244077415
100.068570327114
100.075596731257
100.075733142631
100.073786276792
100.074336877717
100.07432189812
100.074701829117
100.075199308699
100.074968144002
100.076693181408
100.076308495113
100.078849209196
100.078850957821
100.075422269463
100.070607901486
100.069521924341
100.06947337623
100.070477200204
100.070333114825
100.069549844888
100.070989706998
100.077436970696
100.077486583354
100.07177236942
100.069965970981
100.069860491594
100.069147479447
100.069015602712
100.07000101395
100.069951301882
100.07170140299
100.077250069997
100.077080534418
100.070882868149
100.069501612006
100.070234408663
100.07018805664
100.069306110227
100.06935592903
100.070479463171
100.0752185665
100.078490188072
100.078341397997
100.071398842799
100.070884468782
100.068690425208
100.068172257747
100.06809895931
100.0677280537
100.067193316892
100.066057183764
100.067148560583
100.068299632959
100.068461993347
100.067626231747
100.066592334261
100.065440711712
100.065069055977
100.065659453677
100.065585330751
100.064909571835
100.065463125914
100.066593483679
100.067570187489
100.068552208281
100.068525000936
100.067334385838
100.0662356316
100.067412174694
100.06783865359
100.068168922243
100.068172145715
100.068673340866
100.071110790259
100.071818726244
100.069212603939
100.072368320306
100.075485645276
100.077138149533
100.074980570481
100.074729809785
100.07589338538
100.073887704991
100.071408344597
100.06721298876
100.072514591414
100.060612465251
100.048585643932
100.054303272762
100.055421808252
100.067609290724
100.063508836699
100.064723926872
100.06687877813
100.064882723215
100.063468392828
100.062955038411
100.065528788988
100.067028749092
100.062964453675
100.062024113822
100.06436051948
100.061566791039
100.060448052303
100.061478171083
100.061482658767
100.06049942386
100.061582340524
100.064312749755
100.061984165871
100.062783488399
100.067267527523
100.066056561347
100.063291745872
100.063657635404
100.064986557842
100.066943336867
100.064677775935
100.063384639004
100.067932843138
100.06796646723
100.064968492052
100.06850849653
100.074743907995
100.080142385577
100.073508788878
100.073415599751
100.077696606981
100.092992542349
100.061606117519
100.062147928879
100.046026005154
100.019569099351
100.020479213331
100.016014695419
100.016416814904
100.02279825984
100.053552067648
100.065898218677
100.062005785558
100.061808191481
100.068706845015
100.054984883299
100.055735296142
100.055665221016
100.055858527281
100.065566901705
100.060718953002
100.060707982976
100.065513357588
100.055884729151
100.055708069394
100.055735458239
100.054820785106
100.053655389982
100.055707654575
100.053925050332
100.014427023634
100.017597015392
100.018594085398
100.018439769069
100.017639148085
100.017775747914
100.019226994306
100.019875636944
100.023201043112
100.020316582068
100.021325580326
100.024916229444
100.024920597734
100.021336182138
100.020276569606
100.022960106255
100.022466202803
100.015747436904
100.017466256112
100.024246844366
100.024679767061
100.023552028694
100.023421025044
100.024512166046
100.024383980131
100.023479610358
100.023854441405
100.024144399223
100.018925698332
100.019699828627
100.020901763701
100.020859655198
100.019585185153
100.018710157354
100.01963442783
100.018903840204
100.023248276656
100.024512668217
100.02523127344
100.02547723158
100.024639416602
100.024652235398
100.025551894297
100.025384037909
100.02470808246
100.024951882903
100.02514848046
100.025162886971
100.024434044611
100.024030141117
100.023968924678
100.024256453345
100.023805389578
100.023593929731
100.024734238064
100.022943176596
100.022774625345
100.022963943265
100.023117754479
100.022594874878
100.022542751189
100.023088356373
100.023048549352
100.022842946356
100.023077881799
100.023087484337
100.023112163168
100.022992883781
100.024785650782
100.024736132663
100.025033988867
100.024920794036
100.022955797012
100.020650021179
100.020663446871
100.020519185646
100.020504951233
100.020484417284
100.020449270061
100.020351334824
100.020344703936
100.020501378632
100.020468212397
100.020691831855
100.020684617228
100.020777447715
100.020754442846
100.020746487173
100.022967940701
100.023078733029
100.02077795549
100.018922403202
100.018799925098
100.018776282422
100.018627813035
100.018599036699
100.018391720424
100.018801136127
100.018773861433
100.018327893995
100.018526578567
100.018496608879
100.018704104542
100.018738995437
100.018885728976
100.018894388176
100.018903079791
100.017301098599
100.01729466438
100.017145032695
100.017072243093
100.016873498515
100.016844711419
100.016572493319
100.016373803106
100.016399281881
100.016548852967
100.016707234576
100.01669477677
100.016912735549
100.017004537578
100.017213678955
100.017274047484
100.015639020145
100.01567951397
100.015605506757
100.015370798341
100.015219654396
100.014913905543
100.014808424166
100.014636757235
100.014059025319
100.014024929746
100.01445696448
100.014601304473
100.01471620648
100.014996289336
100.015169911417
100.015489327336
100.01348919729
100.013794878708
100.013842325612
100.013620043378
100.013230580751
100.012970050094
100.0124933846
100.012227248626
100.012081710042
100.011091961267
100.011049344437
100.01184099705
100.011954690691
100.012294796211
100.01270306037
100.013016353152
100.009944921221
100.010780322338
100.011356611967
100.011392059362
100.010896617168
100.01013135053
100.009963179258
100.009200952888
100.008344902607
100.008308612247
100.006488880326
100.006478359476
100.008186606619
100.008118555745
100.008992916746
100.00966133653
100.005265899555
100.004679304715
100.006503995801
100.007698038096
100.007704683529
100.006605715087
100.004799561748
100.005453506932
100.004373513446
100.00172816513
100.002788522035
99.9993588930605
99.9991024070124
100.002404765677
100.001564322249
100.004255454524
99.9919723935367
99.9927140618571
99.9882503607378
99.9917557601624
99.996076155909
99.9960426915201
99.9918291738753
99.9883639420708
99.9929379041944
99.9920918425555
99.9838938959015
99.9873688315889
99.9841376157197
99.9839133435535
99.9869719219017
99.9840640998895
99.9942077703511
100.002682506008
100.00267548139
99.998327874228
100.006165216383
100.008211199784
100.008142126857
100.006022218356
99.998384439937
100.002592335841
100.002603646624
99.9940632133632
99.9878077988608
100.022175364699
100.045539480696
100.045635169236
100.022769296217
99.9883722358539
99.9883439637253
100.082619889821
100.166404797832
100.106641382434
100.106816180589
100.093712509377
100.079330854858
100.070238975248
100.065219256426
100.063838190096
100.068359531453
100.082493870995
100.072337761308
100.072320512859
100.082375947596
100.068176579934
100.063643844703
100.065331325535
100.070181637644
100.078973854866
100.093328423437
100.188233169521
100.20709128008
100.207143213782
100.188222763201
100.191388025067
100.185048396065
100.209856826372
100.252454427654
100.159309509286
100.163609635776
100.219359422764
100.181360906417
100.208193004765
100.233888123221
100.173489658164
100.173447891135
100.233948788653
100.208270811959
100.181294103957
100.219250474915
100.162647737764
100.158570141531
100.20967413055
100.185092178726
100.191317078277
100.287346925239
100.333044591128
100.299281354105
100.29926017524
100.333201300372
100.305830822715
100.287464514577
100.396704614504
100.425680084607
100.395395841405
100.415502241944
100.416609438657
100.370462814377
100.310629424737
100.347043576205
100.290555833721
100.398429006241
100.426138181783
100.401243736576
100.414571397289
100.441417043888
100.391079666911
100.325724571809
100.330643508105
100.256363594768
100.296705854326
100.378617038808
100.418784641675
100.442961042843
100.457773298707
100.465843136044
100.470089530399
100.472515305486
100.474021347712
100.474817140454
100.475132940352
100.474983533929
100.474002904606
100.47182068803
100.467974406264
100.462608310523
100.456429451003
100.450616933269
100.447236553709
100.44796848806
100.455684487825
100.471855157281
100.493532639403
100.517409815562
100.529447033406
100.543110345774
100.529279845488
100.48126896664
100.436094369866
100.388043872915
100.35960748916
100.378890298718
100.376622859613
100.375244368835
100.375697010185
100.376557503755
100.377293319043
100.377986003981
100.378689768352
100.37930818332
100.379735346614
100.379974225112
100.380092950741
100.380135832138
100.379789339068
100.379342623839
100.378804276623
100.378199945995
100.377562864147
100.376927657454
100.376332937739
100.37581486023
100.375392342056
100.375065666212
100.374817164856
100.374623904823
100.374468893762
100.374339152945
100.374222074519
100.374104415699
100.373975567765
100.373828850406
100.37365969354
100.37348073883
100.373291191205
100.373215150817
100.373307895256
100.373471781143
100.373632674994
100.373659665168
100.3737621964
100.373754302075
100.373872635855
100.373857277379
100.373929963075
100.37394718295
100.373927312288
100.373871820259
100.373671217156
100.373485202439
100.373442865281
100.37343296609
100.373416008916
100.373527173891
100.373492618276
100.373591378474
100.373632451898
100.37385977249
100.373901509596
100.373929535726
100.373903043119
100.373824520627
100.373830969742
100.373716628263
100.373724131977
100.373616136
100.373581926005
100.373422142959
100.373173679719
100.373371871657
100.373546616797
100.373577282533
100.373686177554
100.373678800389
100.373799280484
100.373794382977
100.373872314248
100.373907092274
100.373875529887
100.373838951779
100.373780672508
100.3738527642
100.373872020081
100.373836718189
100.373761085947
100.373765294644
100.373639861905
100.373643202134
100.373534084118
100.373495200522
100.373322719104
100.373042649032
100.373283850915
100.373464543175
100.373499229791
100.37360720485
100.373604734629
100.373732379848
100.373730806832
100.373811907183
100.373843902704
100.373843814441
100.373701732011
100.373577033107
100.373582213616
100.373554359142
100.373517575359
100.373666340386
100.373574746657
100.373685348026
100.37369396056
100.373816815394
100.373808575919
100.373780580266
100.373692159414
100.373690531209
100.373568462155
100.37357051624
100.373459103301
100.373414913895
100.373239376654
100.372926451133
100.37321394473
100.373389478744
100.373429110798
100.373533313551
100.373536847873
100.373662820383
100.373661219827
100.373745277467
100.373777776897
100.373783342533
100.373723325313
100.37372648865
100.373699377665
100.373631842779
100.373620443571
100.373509126277
100.373486231331
100.373397538552
100.373342348697
100.373176997666
100.37284416884
100.373171828825
100.373324257672
100.373371958102
100.373454597286
100.373483621084
100.373577650728
100.373578345897
100.373640452254
100.373691070561
100.373652840361
100.37360388951
100.373603856078
100.37366610728
100.373562312403
100.37364636972
100.373571596968
100.373645031965
100.373582983868
100.373534828718
100.373459031408
100.373415597599
100.373338750991
100.373286291085
100.373148752039
100.372797595095
100.373168834688
100.373261083299
100.373276966233
100.373378061126
100.373394198402
100.373484303789
100.373535972999
100.373594393519
100.373555117956
100.373555695622
100.373230349441
100.372966750685
100.372947886366
100.373142316428
100.373118064727
100.373466089183
100.373534451092
100.373556234447
100.373496771562
100.373414450465
100.373466037126
100.37343960456
100.37328390435
100.373324340158
100.373329840415
100.373207530769
100.373133811679
100.37299500558
100.372694316924
100.372224226098
100.372756521962
100.372990445374
100.373116920997
100.373178022071
100.373298094578
100.373289173993
100.373421094195
100.373416633112
100.373491951451
100.373521559629
100.373489500157
100.37334956957
100.373209278124
100.373189836704
100.373420013172
100.37325720081
100.373436958731
100.373471764275
100.373427198761
100.373368530721
100.373389705339
100.373268790878
100.373273009213
100.373158277238
100.37308972927
100.372955063376
100.372712404458
100.372149264538
100.372751982824
100.372970633123
100.373076048843
100.373149586641
100.373244360284
100.37326712715
100.373350116928
100.373406401156
100.373345725172
100.373441672967
100.37329168486
100.373311872929
100.373444609997
100.373465640382
100.373428287499
100.37334473373
100.373289497004
100.372882848686
100.372572048197
100.372948848919
100.372971199948
100.373343573157
100.373150772778
100.373376713216
100.373417564936
100.373363825284
100.373359502689
100.373308626674
100.3732239963
100.373211148041
100.373079830661
100.373062824342
100.372958065014
100.372757214365
100.372219690292
100.372862181444
100.372987240807
100.373045045605
100.373161068302
100.373144002111
100.373270507605
100.373285480698
100.373318896491
100.373319323364
100.373322524407
100.373325680922
100.373343901095
100.373350663278
100.373365904263
100.373339388663
100.37335618594
100.373388313333
100.373414488235
100.37345048103
100.373482726065
100.373521200543
100.373558938665
100.373601356426
100.373642235272
100.373684381244
100.373727519394
100.373700333057
100.373800609693
100.373789458101
100.373903543942
100.373886437495
100.3739566375
100.373965892958
100.373947863599
100.373882013565
100.37371360132
100.373552561292
100.373267334879
100.372978908779
100.372825394186
100.372731464891
100.372636008192
100.372581597809
100.372623469302
100.372650656795
100.372798531457
100.372881391209
100.373204484313
100.373155988981
100.373086151478
100.372943738368
100.372768623001
100.372757329422
100.372665702507
100.372594883958
100.3725351052
100.372558379048
100.372773338891
100.37283540224
100.372915030666
100.372970633729
100.372996638281
100.373017231474
100.373277544828
100.373328098155
100.373332190751
100.37330870242
100.373294735575
100.3735116716
100.373531064967
100.373195136279
100.372890395591
100.372488141228
100.372013200489
100.371480026732
100.371466533508
100.371435691253
100.371758395281
100.371914750292
100.372025158859
100.372602427498
100.372526262482
100.372512966007
100.372052330275
100.37197909037
100.372376699806
100.372453455491
100.37292986349
100.372912223925
100.372647091102
100.373028895071
100.373117785706
100.373331280111
100.373355156115
100.373338647953
100.373379127671
100.373375805602
100.373389191063
100.373424286523
100.373444836208
100.373484637132
100.373510297709
100.373552395877
100.373586140972
100.373630848293
100.373668152158
100.373709881099
100.37374885148
100.373791245714
100.373770690498
100.373744253274
100.373841024711
100.373826117182
100.373933236879
100.373913989137
100.373987051256
100.373987892475
100.373971241149
100.373875369591
100.373764511372
100.373678365175
100.373576783732
100.373337187532
100.373141254459
100.372964880589
100.372858555535
100.37261351398
100.372434332361
100.37229882247
100.372182226174
100.372009901242
100.37186067662
100.371750269741
100.371629542171
100.37148446179
100.371373808178
100.371286576396
100.371354435866
100.371477378157
100.371648722791
100.371774655303
100.371893971195
100.371976235216
100.372072705785
100.372178076814
100.372285337821
100.372400428472
100.372273832214
100.372399774475
100.372637153884
100.372671948065
100.37316788134
100.373349530349
100.37362957368
100.373750422332
100.373789793012
100.37383137338
100.373831490709
100.373813035179
100.373785042962
100.373875837904
100.373860193194
100.37396664167
100.373940113585
100.374006039213
100.374002735946
100.373988964706
100.373886852503
100.373787590685
100.373605803215
100.373391838416
100.373213699086
100.372935106832
100.37269104761
100.37255239896
100.372203018261
100.372146206238
100.372001167591
100.371853558783
100.371662378433
100.371567291649
100.371380098972
100.371240135937
100.371026419794
100.371220393036
100.371439370272
100.37167773086
100.371858956589
100.371886282886
100.372065451951
100.371983224254
100.372045925397
100.372053529131
100.371844563944
100.372653883666
100.373456553586
100.373561972501
100.37363993646
100.373639372832
100.373758986557
100.373807244329
100.373827491412
100.373912051218
100.37389265403
100.373995352698
100.373966504527
100.374021291644
100.374016238703
100.374002551494
100.373921393033
100.37382074411
100.373655069129
100.373451589895
100.37329257217
100.373037893858
100.372784854294
100.372677066526
100.372354839111
100.372314939734
100.372156834457
100.372089076704
100.372030140314
100.371838392288
100.371682524442
100.371525081385
100.371362910456
100.371151723348
100.370934219509
100.3707091016
100.370489074554
100.370271887609
100.370001747405
100.369673585297
100.369967789864
100.370310681775
100.370541843121
100.370781985573
100.370928387906
100.371118927771
100.371350268663
100.371568849253
100.371724048562
100.37187869174
100.371997396601
100.371853151051
100.37170272065
100.371544947717
100.371593532748
100.371473496707
100.37136045426
100.371424723716
100.372356019163
100.373305194253
100.373430384226
100.373526707518
100.373529558948
100.373670760458
100.373721091203
100.373579052622
100.373440080245
100.373568545038
100.373686319552
100.373748925038
100.373843973287
100.373868030247
100.373949663061
100.373927077048
100.374021043328
100.373991151424
100.374037636493
100.374033079344
100.374013228274
100.373966527838
100.373849285331
100.373723508303
100.373516373016
100.373364103426
100.373123028732
100.372908672324
100.372776781796
100.372483672647
100.372436326163
100.372203313492
100.372260966107
100.372090086113
100.37217311871
100.372096930373
100.372084444549
100.37193585557
100.371761368216
100.371599303836
100.37144362104
100.37126192732
100.37103540752
100.370804228303
100.370577596549
100.370338373595
100.370043406639
100.369699261694
100.369372418134
100.369072314978
100.368679696961
100.368956836067
100.369414399441
100.369670199731
100.370013448681
100.370271403753
100.37050688904
100.370746148973
100.370983911032
100.371212942899
100.371392543464
100.371549714448
100.371714208318
100.371905594097
100.371889107784
100.371944331127
100.371914162325
100.371792623327
100.371304896782
100.370354912288
100.370387461421
100.369861240832
100.369209419406
100.36846444941
100.367622209014
100.366676985764
100.365818719491
100.36463361848
100.363588219979
100.361363406276
100.361736824315
100.362991901028
100.364853544417
100.366374407375
100.367701831501
100.368670028603
100.369439850526
100.370033662285
100.370497836257
100.370869953807
100.370940804053
100.370376089363
100.369863730219
100.369446230309
100.368882443307
100.368203750737
100.36733903604
100.366201467815
100.364786523007
100.363211307249
100.362762220062
100.357438062044
100.355493455586
100.360135751139
100.358661449885
100.357882312643
100.355468909706
100.354289350295
100.352984559733
100.35599322826
100.358917588156
100.360668090261
100.362821007957
100.363269973781
100.36519751722
100.366929945129
100.3681533578
100.369163930317
100.369898088315
100.370527762883
100.371005640417
100.371416388657
100.371806535937
100.372196222532
100.371133750283
100.371277528751
100.370369688548
100.372012927015
100.372152527332
100.371995054757
100.371882568086
100.371616418913
100.371229415231
100.370704949795
100.369939825671
100.368916241231
100.367601476756
100.36613838682
100.364759989835
100.364316373179
100.365260998404
100.36618237281
100.362577899066
100.360243614183
100.360595091696
100.348089657272
100.351900825364
100.347792480761
100.352763236431
100.352469153221
100.366636896439
100.36988366577
100.37187066033
100.371736143978
100.371710010968
100.371895254922
100.372327876649
100.372512593587
100.372704904951
100.372891126092
100.37306182711
100.373139004077
100.373345559959
100.373542029268
100.37372874399
100.373890615507
100.374031850627
100.374158769302
100.374282524849
100.374417433586
100.374577096044
100.374774889812
100.375028000708
100.375360241855
100.375789390124
100.376314791764
100.376918185364
100.37756204281
100.37820751344
100.378819052107
100.379363075331
100.379814285685
100.380164178452
100.380406706985
100.38037599691
100.380226932089
100.379991509574
100.379651946099
100.379214930541
100.378689151517
100.378101510279
100.377484649622
100.37687099657
100.376297818769
100.375799194007
100.375393547239
100.37508017171
100.374841262918
100.374655930354
100.374508423178
100.374385498219
100.374275095791
100.374165118663
100.37404552287
100.373910279127
100.373754778799
100.373591120544
100.373417310727
100.373350411844
100.373467470011
100.373569185824
100.373690147395
100.373784509835
100.373886783706
100.373904756709
100.373980532463
100.373963110734
100.374050521151
100.374016677909
100.374078929101
100.374056631504
100.374021142974
100.373971803794
100.373955808603
100.373942653592
100.373802277262
100.37358256148
100.373458107625
100.373148967995
100.373073888146
100.372887802126
100.372867935519
100.372668296377
100.37256338442
100.372342747647
100.372379814097
100.372269730308
100.372243706909
100.372225814768
100.372156063358
100.372203906951
100.372095044855
100.371951880639
100.371905001853
100.371709040293
100.371536936144
100.371376888096
100.3711677032
100.370937601608
100.370710195471
100.370458628567
100.370162561552
100.369880607025
100.369616950594
100.369805676651
100.370179762439
100.370464665955
100.370710007157
100.370939343236
100.371170090197
100.371370902112
100.371530129998
100.371703897523
100.371910134953
100.371890393775
100.372009804052
100.372038083133
100.372026079805
100.372042946442
100.371918228701
100.371825688484
100.372010616821
100.371728409055
100.370865271765
100.372466430139
100.373033874249
100.373605251143
100.373756163426
100.373746400344
100.373859946756
100.373900989495
100.373965039557
100.373984385377
100.374045822437
100.374027861821
100.374084867077
100.3740850285
100.374120135729
100.374075805422
100.374008487689
100.373848381715
100.373732714983
100.373620030525
100.373545385682
100.373270652183
100.373185261992
100.372975330581
100.372797147425
100.372686550882
100.372469397608
100.372488942629
100.372343045724
100.372397708714
100.372252697848
100.372343350165
100.372312469592
100.372324514877
100.372286994387
100.37236085628
100.372233888602
100.372217739691
100.37202711496
100.371865571495
100.371713616721
100.371531033464
100.371322762406
100.371122825243
100.370899149867
100.370641049249
100.370360140469
100.370074471801
100.369745772631
100.369325386687
100.368873479951
100.368482285742
100.368196217988
100.368475865178
100.368969814037
100.369402892149
100.369709625197
100.370036327168
100.370337902741
100.370615942293
100.370862237622
100.371093823537
100.371307434211
100.37149636232
100.371673221246
100.371853198854
100.372033827019
100.372195689873
100.372177106518
100.372064966203
100.37203320968
100.372000369091
100.37183060552
100.371570808916
100.370952044045
100.371279628002
100.37158170604
100.372181856828
100.372298255634
100.371824476613
100.371182457909
100.371564712
100.370999619565
100.372469414868
100.372395245824
100.372340352328
100.372175229698
100.372282913177
100.372368082959
100.37232973799
100.372182370811
100.371911166674
100.371469608516
100.370802237907
100.369877673286
100.368615921901
100.367537332002
100.370358743027
100.369537528542
100.367801187676
100.365541823326
100.362753489037
100.361500717783
100.361013405754
100.362040172282
100.351771964038
100.354570635091
100.348175824579
100.346871739848
100.351266171595
100.35413139616
100.350165603762
100.351057253716
100.350878650132
100.353676879985
100.351469989224
100.353459987489
100.354004933416
100.352706969051
100.353262485299
100.356152760919
100.356943218897
100.358821561506
100.36084519323
100.35857315067
100.360158887163
100.362861690458
100.363572049636
100.365834777496
100.364349007225
100.366220349317
100.367586587445
100.368807310347
100.369656739104
100.370355061561
100.3708682107
100.371288799742
100.371642680007
100.371977284322
100.372254780785
100.372445667907
100.372198042811
100.372108327794
100.371656464315
100.370874351501
100.37185798162
100.373290450851
100.373734686514
100.373849765856
100.373921473908
100.374015062974
100.374051918944
100.374076665016
100.374128069806
100.374124133327
100.37417208111
100.374216907214
100.37417900907
100.374237902155
100.374189878646
100.374145230087
100.374090289435
100.374022743128
100.373971324184
100.373889524502
100.373813792005
100.373644835256
100.373459630065
100.373359870927
100.373285570582
100.372998665531
100.372958442259
100.372775047846
100.372795341121
100.372661724304
100.372606484939
100.372468993099
100.37250620007
100.372440572059
100.372451397209
100.372458835017
100.372415885495
100.372449146329
100.372427218933
100.372453764977
100.372331661342
100.372243124544
100.372084000719
100.37205156637
100.371824833961
100.371653766399
100.371452355752
100.371247589763
100.371001703654
100.370767925279
100.370472938492
100.370163109986
100.369857046349
100.369488775022
100.369017124362
100.36877380862
100.369072051651
100.369541693753
100.369905631222
100.370213891393
100.370515466188
100.370798169063
100.371029740336
100.3712479953
100.371459030724
100.371654949585
100.371820189692
100.371998783957
100.371967472293
100.372031638411
100.372001276505
100.372032424319
100.372192278008
100.372148232911
100.372370417294
100.372191148854
100.372445738841
100.372707041685
100.372840990362
100.372635013438
100.372041516889
100.372174328983
100.371654052202
100.372766573629
100.372918499823
100.373403987075
100.373303422661
100.373584543106
100.373701948746
100.373647142314
100.373607772317
100.37343861319
100.373313984557
100.373177490401
100.37300666894
100.372874789608
100.372603356807
100.372243672663
100.371568331295
100.371015849372
100.37159344458
100.372087214637
100.372459353771
100.372722129222
100.372906274419
100.373049849285
100.373138395031
100.373218033351
100.373284253997
100.373712815559
100.373570192368
100.373759958225
100.37381449328
100.373682033046
100.373657379292
100.373824121495
100.373893737057
100.373942724658
100.373986105416
100.374057336596
100.374054587968
100.374076503339
100.374118249208
100.374113861787
100.374134090615
100.374090405803
100.374033214978
100.373911999046
100.373863720644
100.373992480029
100.374057097568
100.374114474724
100.37410294969
100.374087705079
100.374113972957
100.374110790436
100.3741512977
100.374151776837
100.374116092599
100.374050561786
100.374097393617
100.374140440761
100.374174671185
100.374187854958
100.37418589702
100.374135591289
100.374163250508
100.374093009155
100.374108860576
100.374049858896
100.374021686358
100.373980030544
100.37390424356
100.373751959351
100.373850913504
100.373941023964
100.373986810801
100.374016555597
100.374084381453
100.37406474833
100.374152583908
100.374100465828
100.374128093883
100.374152639123
100.374180193857
100.374154700518
100.374214841331
100.374214034388
100.374257371019
100.374219543507
100.374148516166
100.374019445445
100.373926210563
100.373788366608
100.373720779587
100.373656631117
100.373584970858
100.37344074314
100.373410891753
100.373258490341
100.373151364875
100.373045239959
100.372868546597
100.372772672996
100.372726533464
100.372586195993
100.37261383203
100.372523677333
100.372590088535
100.372476815925
100.37255758393
100.372533479287
100.372538733395
100.372524942069
100.372556165763
100.372530120491
100.372542025937
100.37242143791
100.372296197583
100.372158231759
100.371970503737
100.371786582697
100.371604561121
100.371384885948
100.371168713702
100.370896870425
100.370648434179
100.370335263147
100.369999008738
100.369667544903
100.369257998914
100.368770995274
100.368359532454
100.367847805739
100.367178289215
100.366488278587
100.365846873854
100.364907850783
100.36425476209
100.365231239198
100.366111952822
100.366774574602
100.367465652998
100.368057441223
100.368466793485
100.368604698316
100.368251079516
100.36784910767
100.367251794001
100.366625643382
100.365902685385
100.365134922154
100.365913658323
100.366589601826
100.367250929403
100.367768895779
100.368064581132
100.367551128723
100.366994250489
100.366413100233
100.366978670977
100.367550953182
100.368055081486
100.368551529555
100.369015697859
100.369362343442
100.369598482777
100.369201132226
100.368769986022
100.368371426744
100.367944694365
100.367372516786
100.36784433449
100.368474661158
100.368755019943
100.369132948222
100.36948391467
100.369898914451
100.370229585725
100.370499576282
100.370737205119
100.370970719784
100.371197815212
100.371389084398
100.371548942777
100.371715546508
100.371728591849
100.371691113362
100.371740453788
100.371479718756
100.37169604147
100.371804187549
100.371911441012
100.371881749079
100.371902906683
100.371842191163
100.371872096324
100.371848193469
100.3717601624
100.371700547948
100.371849531556
100.371430303515
100.370948007316
100.370330023208
100.369609005828
100.368636965154
100.367482717801
100.366582626302
100.367914519129
100.369056073708
100.369888743084
100.370594060074
100.371130413598
100.371593033895
100.371951722808
100.372181120566
100.372468308791
100.372684629385
100.372694308783
100.372689909154
100.372752853379
100.372841172843
100.372288901982
100.372269399557
100.372524999015
100.371679964695
100.372842111818
100.373024791492
100.372921814764
100.373103448304
100.373618026353
100.373949243981
100.373979887502