/*--------------------------------*- C++ -*----------------------------------*\
| =========                 |                                                 |
| \\      /  F ield         | OpenFOAM: The Open Source CFD Toolbox           |
|  \\    /   O peration     | Version:  v1612+                                |
|   \\  /    A nd           | Web:      www.OpenFOAM.com                      |
|    \\/     M anipulation  |                                                 |
\*---------------------------------------------------------------------------*/
FoamFile
{
    version     2.0;
    format      ascii;
    class       volScalarField;
    location    "1.8";
    object      p;
}
// * * * * * * * * * * * * * * * * * * * * * * * * * * * * * * * * * * * * * //

dimensions      [0 2 -2 0 0 0 0];

internalField   nonuniform List<scalar> 
79587
(
100.071143524219
100.07308786807
100.069712270129
100.07405939843
100.081101111013
100.081216727808
100.079172319934
100.079697252458
100.079810369922
100.080184678427
100.08047207159
100.08028428439
100.082162724657
100.081850920178
100.08418884694
100.084146798826
100.080829058022
100.076182416349
100.075164633299
100.075161697011
100.07615208037
100.075869118973
100.075087645037
100.07663266564
100.083041886797
100.082940453713
100.0772839959
100.075615451171
100.075588842603
100.074771877536
100.074644524911
100.075712513456
100.075624089873
100.077238942495
100.082701755264
100.082605319425
100.076430774347
100.075046001695
100.075855518786
100.075926366366
100.07502313971
100.075027832278
100.076095308948
100.080659932792
100.08380321538
100.083659640448
100.076761163681
100.076308993946
100.074022624205
100.073313795714
100.073441410934
100.073308778267
100.072716088817
100.071394402842
100.072511613951
100.073829252986
100.073928147718
100.073021459511
100.072055889284
100.070832062679
100.070502712988
100.071093183689
100.071017254539
100.070341818313
100.070844018183
100.072039181546
100.072869049044
100.073954352541
100.074029855286
100.072614594797
100.071536277599
100.072890270425
100.073383243533
100.0734877545
100.073274095438
100.073979151281
100.076517536887
100.077239418478
100.074829641196
100.077730893827
100.080645843811
100.081997191126
100.079674657284
100.079483988777
100.080876293532
100.079157503385
100.07679601648
100.072566058517
100.077843362793
100.066612753929
100.055610830126
100.061379453786
100.062475343695
100.073420380393
100.069091056989
100.069720214503
100.072044576983
100.070169337584
100.068687333783
100.068102249689
100.070822403515
100.072639402742
100.068499086759
100.067737419643
100.06993648856
100.066675555199
100.065564202666
100.066795560659
100.066797326009
100.065610525894
100.066686553291
100.069880284759
100.067611988332
100.068046774288
100.072685092726
100.071260512141
100.068391934875
100.068831667969
100.070219409851
100.072039232744
100.069624441024
100.068931389019
100.073680769008
100.073705130618
100.07068625767
100.073798178334
100.080009272584
100.084697533276
100.077641430457
100.077584746539
100.082390093472
100.098333414779
100.068030853401
100.068552207812
100.052861632324
100.025875829591
100.026812156961
100.022637898312
100.022937093387
100.029224864063
100.060644888539
100.071852294327
100.067557836218
100.067298296704
100.073990199028
100.062208071568
100.062904579047
100.06273911489
100.062972137213
100.070727940432
100.066265669204
100.066248133912
100.07066577871
100.062990622236
100.062803958141
100.062939972494
100.062070950434
100.060772617398
100.062774355676
100.060731432632
100.021098716535
100.023516191145
100.024322373346
100.02395819475
100.023353230459
100.02344081856
100.024913629796
100.025523267917
100.029659609243
100.026908311001
100.027900910787
100.031417368609
100.031423403999
100.027951988172
100.026929696215
100.02947426346
100.028976221531
100.022369476784
100.023184026159
100.029753046481
100.030427180332
100.029024065581
100.028675561703
100.029949982863
100.029857030365
100.029039273519
100.029354026937
100.0295191408
100.024569705421
100.025410062414
100.026654737903
100.026612719549
100.025339760699
100.02443516064
100.025336614042
100.024666862587
100.028856364521
100.030196391502
100.030786793881
100.03093918348
100.030316793085
100.030420160665
100.03108101122
100.030965306404
100.03040173073
100.030595061604
100.030740248216
100.030763895408
100.029934822788
100.029624811391
100.029563878421
100.02981359263
100.029359679086
100.029157267996
100.030403993082
100.0286717209
100.028490713184
100.028670209119
100.028495636706
100.028782744738
100.029104391414
100.028987067317
100.028850374888
100.028642210926
100.028819814264
100.028807751954
100.028814674632
100.028701406191
100.030432224016
100.030388676018
100.030665448498
100.030561249569
100.028676591815
100.026359391539
100.02638259106
100.026259712289
100.026346008457
100.02627161317
100.026082650021
100.026105757306
100.026322894526
100.026382832269
100.026293797987
100.026455758638
100.026427457339
100.02650441894
100.026463771017
100.026443064416
100.028674232685
100.028787479219
100.02647621222
100.024571487923
100.024461223729
100.024472605655
100.024377044233
100.024454444155
100.024548402122
100.024641887111
100.024386334498
100.024162987544
100.024353172082
100.024296635006
100.024460886193
100.0244591155
100.02457467916
100.024561482007
100.02455519652
100.022883929143
100.022880518915
100.022752871013
100.022735534942
100.02262566157
100.022611404443
100.022469645967
100.022716274654
100.022589586371
100.022278712124
100.022526188766
100.022471988107
100.02265344481
100.022689224637
100.022847938634
100.022873558399
100.021134248047
100.021152796958
100.021101876481
100.020904899942
100.020831612206
100.020660694836
100.020581475736
100.020279535371
100.019910951518
100.019976026749
100.020319388277
100.02049624314
100.020505204594
100.020722647608
100.020801336968
100.021053467239
100.018930644334
100.019105549237
100.019122300536
100.018968807929
100.018653914736
100.018513073979
100.018219349387
100.018088653803
100.017939575033
100.017079713252
100.017127321594
100.017930981133
100.017983944323
100.018148396749
100.018418359134
100.018565627331
100.015350916154
100.016049140302
100.016399438833
100.016380560615
100.015997689524
100.015360153041
100.015405016305
100.014917623504
100.014422468142
100.014621046053
100.013087323221
100.013092547547
100.014598398217
100.014389940296
100.014983115549
100.015378945197
100.010834452586
100.009839578478
100.011345046396
100.012303722818
100.012206090617
100.011179936311
100.009675719117
100.01067887812
100.010098192408
100.008046328587
100.009499565937
100.006071116628
100.006084681101
100.00960624832
100.008231510826
100.010344688507
99.9990515185545
99.9989452240385
99.993520352141
99.9966925868092
100.00046172679
100.000225213269
99.9961772105736
99.9932359657291
99.9985452604404
99.9984847279199
99.9908762622598
99.9951886701698
99.9907770499383
99.9908067647877
99.9954406428471
99.9917458725002
99.9987085109558
100.007366312685
100.006247152043
100.000165003603
100.006633093357
100.008512352108
100.008141213644
100.005832968546
99.9990483627075
100.005038526319
100.006378943308
99.9978518654696
99.994037615882
100.025380773038
100.047702314269
100.047576099935
100.025559722212
99.9919084950642
99.9921326776141
100.085282518668
100.169396115772
100.105910433265
100.106289110983
100.092502542579
100.081071762866
100.070585319756
100.068096375269
100.064347343213
100.063804770982
100.076333739661
100.068603779415
100.068132366766
100.075056094813
100.062189069142
100.062443193598
100.066973849764
100.069243224955
100.079904690904
100.091212099048
100.183199334944
100.200549914837
100.200927920617
100.184193548793
100.186836420594
100.177132666282
100.202166043593
100.243805461593
100.155143443405
100.156923782185
100.208202619201
100.172161574877
100.19760729367
100.222257160271
100.162507498713
100.161871640071
100.221054919578
100.195949591465
100.169853903263
100.205440138057
100.153755779047
100.152239769301
100.199776448539
100.17557713455
100.185253994982
100.273720375478
100.319349733878
100.289643337449
100.289742677151
100.320328341662
100.293509334451
100.275116131302
100.399248883135
100.428895484055
100.382611053218
100.400503843223
100.402204197779
100.353064990698
100.295755565232
100.327347725186
100.274128934665
100.39674739691
100.43014773713
100.386379331059
100.388870171462
100.314547881765
100.317721244064
100.246033575841
100.293433314879
100.379186780281
100.424183432841
100.391669055432
100.398258466608
100.33360856309
100.286164419272
100.327029523974
100.306701928236
100.310861065254
100.334081648942
100.24492953363
100.244637383557
100.334015394181
100.309844042997
100.304942532597
100.324213655937
100.28291059086
100.33005925782
100.314090316342
100.311458199722
100.325022265565
100.293554262948
100.292011551699
100.351293094031
100.399389866817
100.381746146368
100.39707393243
100.428388362832
100.428455625392
100.397583091984
100.368378241352
100.368315214209
100.446361810608
100.469244549579
100.4600495664
100.46007522876
100.46085474691
100.449199138177
100.432734432178
100.475770859377
100.476257388973
100.473030329818
100.467288446664
100.463668124562
100.458092005642
100.443262543295
100.442065792518
100.444415609758
100.45442572925
100.424915181016
100.425743161523
100.428327322355
100.436006810498
100.456976542911
100.454356921503
100.435286631939
100.394080847052
100.401884465578
100.380376757603
100.412081978805
100.400805179007
100.400802850192
100.411689602651
100.378766521924
100.399580395444
100.391181506417
100.394371027094
100.387760798964
100.38584569635
100.383953409356
100.400536230687
100.440970174828
100.442546491842
100.448806898008
100.461106277349
100.473256892928
100.470856536135
100.478876457931
100.479120152824
100.47057563409
100.470096260437
100.470125161655
100.475859125916
100.472845525003
100.474977469047
100.474871482325
100.477810283889
100.471317362654
100.47454736629
100.475819794206
100.475182326711
100.475100659509
100.477031864391
100.47513246537
100.475145951828
100.474092838879
100.474143928587
100.471922894197
100.467957750941
100.464418370607
100.468865548831
100.458172468266
100.47578391591
100.47527029853
100.473109725245
100.471401326459
100.476175817558
100.471000922312
100.469384337765
100.474165414788
100.457037937545
100.459087350013
100.461113461143
100.474291619086
100.469770288482
100.468483816207
100.46644442118
100.450886073902
100.443945504131
100.449152157265
100.434886025173
100.435355834274
100.449377516129
100.444033895833
100.450381526834
100.432627720509
100.451140349804
100.453346708154
100.431725904485
100.424559923918
100.423105854946
100.423018956295
100.443133217395
100.457587483796
100.464297055177
100.463351635443
100.46760968575
100.474085802506
100.471455041835
100.477449050869
100.475208837362
100.475786392775
100.47601547377
100.47612325256
100.475833013707
100.475558808888
100.475589230812
100.475415489827
100.476486641045
100.476368407633
100.476260793829
100.477336135951
100.477027001446
100.476025310104
100.476677404596
100.477176598896
100.47764020332
100.478371736712
100.477687339856
100.477415763177
100.477650755464
100.477796177705
100.476685369966
100.476711571787
100.476269309341
100.4746443132
100.473471197902
100.472350262945
100.471498989486
100.472844808731
100.47384840656
100.472940591653
100.47272155267
100.472593774599
100.471505652405
100.472382993332
100.472835851803
100.4765354086
100.471444701065
100.47096272051
100.475038333023
100.473765967294
100.475919609785
100.47035049042
100.433330937686
100.429225249763
100.432555434718
100.444107764528
100.446406729681
100.435832235427
100.434957215281
100.431766312429
100.428324022291
100.424363265096
100.427817948575
100.418097891571
100.426856942798
100.444221875872
100.431278183898
100.435463837146
100.445664376803
100.467911064347
100.466704490225
100.47166864954
100.461445851775
100.464011792083
100.467178908929
100.469096074548
100.460669479125
100.450331502308
100.447680805023
100.424656409528
100.430847251305
100.435993271163
100.435121355417
100.427837764364
100.422038288742
100.434945346111
100.422776951844
100.422822064273
100.435776106093
100.439238539253
100.425206012296
100.422791245727
100.444761816776
100.475950404951
100.476208798441
100.464539833375
100.481498282791
100.465553836308
100.495471710759
100.477669905249
100.462537654979
100.467408023163
100.466783919107
100.470524509449
100.462038338777
100.465920730388
100.450603629542
100.431155071898
100.425765888006
100.431310137621
100.409881652046
100.41715661907
100.440445639183
100.437343325062
100.429501154563
100.423337725621
100.437961180931
100.427255202608
100.426122054741
100.435065455905
100.424873606609
100.424266207393
100.423986071414
100.424691065024
100.422672048633
100.444782679324
100.475882651268
100.476189431323
100.464279702467
100.480922582693
100.477548438408
100.434358400448
100.43416152635
100.434845573432
100.428463104491
100.434986696931
100.478042202357
100.479204515791
100.475273235355
100.489163685009
100.483562770273
100.463996014223
100.44426281714
100.462818219361
100.467255417116
100.464786439802
100.464736886794
100.465959689371
100.45092219248
100.432022086355
100.432175033818
100.431388458888
100.436384516622
100.437070721717
100.434031327064
100.437770360753
100.430100417489
100.422537101892
100.42659173935
100.438576385741
100.432412167065
100.445961644319
100.435401039917
100.435130764227
100.443643390061
100.432120671618
100.432327278537
100.424857411202
100.434545449699
100.435479109497
100.439115799987
100.435301720139
100.445488854427
100.467250589589
100.466263227892
100.470966853114
100.464452888595
100.493776068186
100.477902532125
100.427437530557
100.432902787936
100.43363902498
100.468590411531
100.468229296655
100.488911578179
100.48470521079
100.484374977503
100.466705900432
100.469860478648
100.461807577875
100.447726743798
100.425855319362
100.426588999841
100.431960528275
100.437272927792
100.437917375259
100.443015120559
100.442606518319
100.43566154099
100.436011905922
100.451078959944
100.446197581873
100.450411720319
100.450231689948
100.445745767401
100.444015815174
100.443387984717
100.442474338961
100.450213782999
100.450907375885
100.443801704539
100.444492897391
100.443653293013
100.435901724984
100.426259389566
100.422576118305
100.423242243093
100.431127210609
100.443675025909
100.463120508511
100.460501494355
100.460920842804
100.475961600404
100.481949132716
100.48700529743
100.473802131669
100.467737431842
100.467554333592
100.488187196035
100.462376089711
100.458252841828
100.465134864423
100.462709834209
100.456214038503
100.471150001397
100.471784788028
100.473592183655
100.473833424065
100.472509489181
100.471525843486
100.473217266239
100.4752924624
100.476130931492
100.476184113952
100.475850099765
100.475485422693
100.47531439104
100.475055350898
100.474523715147
100.47390301183
100.473782111089
100.480343900494
100.496045134046
100.528900724761
100.527896795199
100.47273976636
100.427877593062
100.382129038632
100.356297824138
100.375542220864
100.373450971129
100.371801271271
100.372364242182
100.3733275054
100.374257597007
100.375365893961
100.376773188923
100.378360537991
100.37989889016
100.381157887773
100.381987229301
100.382344023973
100.382198956021
100.381817641236
100.381235596685
100.380461361874
100.379494715621
100.378349312687
100.377070483048
100.375658170861
100.374099765469
100.372477345911
100.370949681224
100.369623735263
100.368575991578
100.367814402398
100.36734570232
100.367172058056
100.36726955254
100.367646067627
100.368331432891
100.369342599484
100.370637419082
100.372091295742
100.373259816405
100.373635392917
100.373493742173
100.373464879625
100.373538624432
100.373719390355
100.373963414141
100.373960333762
100.374089806639
100.374158324353
100.374443347484
100.374629209972
100.374829766186
100.375026484812
100.37502053243
100.375104853105
100.374963339024
100.374904067227
100.374815221128
100.374724667704
100.37462427966
100.374518833691
100.37436331515
100.374260693089
100.374097764912
100.373944887503
100.373780269342
100.373602184968
100.373380019293
100.373353195449
100.373287561916
100.373593202876
100.373755110503
100.373924583744
100.374074508802
100.374245846148
100.374366293728
100.374502506843
100.37461745459
100.374725251025
100.37481556095
100.37492141086
100.375055726852
100.374884587626
100.374742488196
100.374481126907
100.374307983381
100.374026445506
100.373998070788
100.373875999198
100.373884613286
100.373607537647
100.373461128253
100.373262759854
100.373336769749
100.373500362142
100.373789619548
100.373794484502
100.373902891538
100.373915765238
100.374193819101
100.374379699782
100.37465694935
100.374789824004
100.374701607837
100.374563650184
100.374252185967
100.37406504895
100.373815703955
100.373809552339
100.373707281522
100.373665365852
100.373404855381
100.373291186673
100.373143154653
100.37317122191
100.373313776184
100.373542730851
100.373606133319
100.373703600422
100.373720636846
100.373951936874
100.374115988965
100.374440682503
100.374614069847
100.374500595851
100.374321760639
100.3739829928
100.373844294124
100.373630243949
100.373572274578
100.373505635017
100.373439487049
100.373235932441
100.373150253462
100.373068173723
100.373022277046
100.373152198998
100.373328204424
100.373381453011
100.373368530797
100.373651293362
100.373692769795
100.373881844204
100.374198410189
100.374385380982
100.374267563842
100.374065322186
100.373729054057
100.37351741635
100.373447564992
100.373256480057
100.373283689233
100.373229170561
100.373085880876
100.37303104287
100.372996358009
100.372897799313
100.373011344713
100.373127578047
100.373172031093
100.373167099036
100.373312471163
100.373375077173
100.373556019399
100.373898981998
100.374120846408
100.373937771083
100.373723718347
100.373373680731
100.373246806921
100.373242223496
100.373125257778
100.373086191221
100.373055652698
100.373036198401
100.372950157182
100.372919008971
100.372873759014
100.372786130635
100.372881645925
100.372957558254
100.372981393996
100.373019266343
100.373042442701
100.373179921162
100.37327773837
100.373591299384
100.373781619948
100.373619525779
100.373436184711
100.373124448801
100.373032656511
100.372948333535
100.372932058617
100.37289931858
100.372890912975
100.372825126692
100.372808623842
100.372742941782
100.37268743145
100.372760933498
100.372822532381
100.372813632681
100.372854520215
100.372878170619
100.372929295162
100.372973517874
100.373275688066
100.37345890017
100.373207712503
100.37308723572
100.372842947574
100.372849734785
100.37278732957
100.372763966701
100.372742340603
100.372756629049
100.372703619026
100.372699782196
100.372608435544
100.372581184034
100.372636520871
100.372663255197
100.372663965152
100.372690108691
100.372706452806
100.372732209653
100.372696256711
100.372941254494
100.373043513166
100.373078385276
100.372944105991
100.372871315744
100.372831918119
100.372696320287
100.372635708175
100.372637211821
100.372538757903
100.372625246551
100.372589247882
100.372576591636
100.372573280921
100.372558541846
100.372494233842
100.372411594566
100.372283570368
100.3721041538
100.37227028144
100.372444419199
100.372463789903
100.372501546888
100.372499318143
100.372517068052
100.372525973456
100.372551842458
100.372479063075
100.372580225342
100.37261607154
100.372801397549
100.372667765218
100.372659479233
100.372611964147
100.372445360777
100.372298541052
100.372341129149
100.372250079804
100.37248711805
100.372464056295
100.372459472908
100.372421146087
100.372445018517
100.372420209809
100.372429781316
100.372386352503
100.372434640073
100.372402526325
100.372378283492
100.372207336554
100.371765012459
100.372186839397
100.37236615056
100.372368129364
100.372388681075
100.372387139769
100.372365084145
100.372386640808
100.372416357558
100.372389069594
100.372428548912
100.372363294179
100.372217516042
100.37222416736
100.372153359737
100.372208814783
100.372083484612
100.372235205928
100.372357760488
100.372277745765
100.372331211091
100.372352939127
100.372352026881
100.372354962849
100.372352719674
100.372335491155
100.372315019133
100.372150673628
100.371621609273
100.372149735499
100.372305552133
100.372317302788
100.372318872965
100.372324637192
100.37231780279
100.372313913164
100.372273972646
100.372196389868
100.372297970284
100.372255207138
100.372268930181
100.372267824768
100.372449297624
100.372428674397
100.37250401768
100.372568311444
100.372630083756
100.372664248005
100.372697515589
100.372726236049
100.37276654764
100.37283003774
100.372923578621
100.373027910933
100.373124005139
100.37323065796
100.373357504977
100.373471709271
100.373594842243
100.373718740087
100.373845964709
100.373952218575
100.374192480483
100.374319524996
100.374630771037
100.374689980572
100.374950839257
100.375114440269
100.375088164258
100.375235382828
100.375108532668
100.374994232952
100.374959868341
100.374704387075
100.374562631781
100.374481255987
100.374326916419
100.374204956793
100.374092136063
100.373973510916
100.373826446895
100.373702245064
100.373581474299
100.37344934169
100.373279055039
100.373159188187
100.373028526178
100.373121529038
100.373113784865
100.3733876724
100.373567193541
100.373718498385
100.373820271961
100.373951200568
100.37411716896
100.374233822334
100.374335332334
100.374454413772
100.37458909662
100.374682861905
100.374771487068
100.374945317618
100.375111257553
100.375184163755
100.375052592713
100.374887514538
100.374557420739
100.374099934016
100.374226802212
100.374321779532
100.37468708407
100.375032849517
100.375202977989
100.375289721842
100.375198201054
100.375068228293
100.374875592024
100.374599454908
100.374220780792
100.374122531211
100.374023813805
100.373810899429
100.373649394817
100.37332159261
100.373118743501
100.372967075658
100.372810325451
100.3726785829
100.372500646427
100.372368583002
100.372233121999
100.372086032842
100.371926454738
100.372104223199
100.372404420548
100.37261001642
100.372708792295
100.37283987954
100.372988295945
100.373150015606
100.373255988041
100.373408502922
100.37354750921
100.373743609582
100.374102267561
100.374145778896
100.374338829517
100.374507182408
100.374833587199
100.374609412691
100.374549023112
100.374746446602
100.374589897266
100.374376684275
100.373810829277
100.37368030075
100.373807854102
100.374042643769
100.374049709803
100.374115240335
100.374256515949
100.374373999397
100.374485352726
100.374739372881
100.375084549129
100.375252750726
100.375330077405
100.375273345644
100.375132982125
100.374864019366
100.374606047759
100.374496185245
100.374269615454
100.373953210034
100.373544630261
100.37343571215
100.373253782506
100.373005361079
100.372796478083
100.372635159852
100.37245872496
100.372242192725
100.372038755047
100.371845639146
100.371721826696
100.371530452626
100.371358245986
100.371133629953
100.37096276324
100.370826000665
100.370735227784
100.370528178078
100.370342624885
100.370443233473
100.370845621203
100.371071542932
100.371191382506
100.371221472215
100.371344908669
100.371489483041
100.371679828235
100.371833201949
100.372020571088
100.372154187629
100.37232688659
100.372496768461
100.372740114225
100.373004619646
100.37316334218
100.373512003077
100.373560478327
100.373756276847
100.373545066837
100.373819085145
100.374088630356
100.374130114464
100.374132057667
100.373817680694
100.373936308538
100.373845788571
100.373878921477
100.374075902232
100.37424752242
100.374247053887
100.374415010521
100.37441008424
100.374569380762
100.374802251655
100.375150120489
100.375304679784
100.375386213825
100.375304043153
100.375286540016
100.375238294274
100.375028338231
100.374723840664
100.374376290411
100.374053599493
100.373661320541
100.37320183416
100.373010613458
100.372914982422
100.37270610702
100.372591645095
100.372435548771
100.372273114695
100.372121909845
100.371994697045
100.371744653468
100.371694652963
100.371480640046
100.371281976897
100.371126713803
100.370861926202
100.370620242583
100.370388426099
100.370228844325
100.370028305826
100.370235508368
100.370517310902
100.370763412142
100.370992520859
100.371231400963
100.371337640546
100.37151969481
100.371730612742
100.371923253153
100.372023107237
100.372208339903
100.372400364441
100.372634154107
100.37278654405
100.373031657411
100.373033696021
100.372796640114
100.373032267239
100.3731727986
100.373415814584
100.373336241716
100.373461622242
100.374570822158
100.374398909083
100.374328282831
100.373949506337
100.373927442167
100.374101480822
100.374133533133
100.374358005329
100.374337363229
100.374455760074
100.374485550203
100.374794902284
100.374997511025
100.375292812861
100.37546738994
100.375384319356
100.375427442191
100.375364566375
100.375287472807
100.375066128235
100.374810120007
100.374392876306
100.374120270983
100.373909417579
100.373708396682
100.373454485524
100.373155880249
100.372825278658
100.372816271997
100.372731672169
100.372587805382
100.372628033833
100.372432047256
100.372289691665
100.372193471324
100.372055648373
100.372188286719
100.371969348445
100.371754636136
100.371599181213
100.3714118081
100.371204073552
100.370919836682
100.370652476314
100.370393474044
100.370112394073
100.369781718983
100.369427914689
100.369085696608
100.368628730665
100.368905048643
100.369333487785
100.369718130064
100.369935165979
100.370162187964
100.370417764759
100.370675564466
100.370958062392
100.371130508867
100.371315389505
100.371529281413
100.371838146159
100.372031359477
100.37199284053
100.372029486072
100.372180311723
100.372332201407
100.372613234655
100.372696019202
100.372682075498
100.372555395429
100.372510937269
100.372547604303
100.372547476892
100.372528147139
100.373587139278
100.370963718666
100.369803943485
100.369229582171
100.368442536789
100.367838992374
100.367425848142
100.36705798382
100.366782957244
100.366445006405
100.365897346242
100.365288149436
100.362664346379
100.36049968954
100.365056779653
100.365404977204
100.36589990305
100.366791297768
100.368053628518
100.368858376805
100.369479964267
100.369976238755
100.370400211775
100.370783817643
100.370999749023
100.371311530869
100.371961063704
100.370700837843
100.37251011406
100.369981906112
100.373416134856
100.373297718888
100.373565465353
100.373622913862
100.373739483003
100.373831875306
100.374044451167
100.37403637155
100.373541833216
100.372674205947
100.371572335996
100.370027052299
100.368244833653
100.367019008177
100.369032081517
100.36997711076
100.367592088292
100.364685421273
100.362407108056
100.360561680027
100.351496300086
100.355106613049
100.354227186859
100.357884729554
100.359134702781
100.361074149645
100.363345505293
100.362314061033
100.359496231115
100.359578696814
100.358496752739
100.360550429251
100.361995421912
100.362475257304
100.363135630176
100.364305735979
100.364193627529
100.366954034608
100.368225442177
100.369451425541
100.371232082411
100.372054156289
100.3721573947
100.372224456527
100.372182577953
100.37268256443
100.372882732611
100.373041509447
100.373162780411
100.373258848689
100.373379631158
100.373565723084
100.373808037494
100.373717882922
100.373406190409
100.373771020828
100.37377044217
100.373939268763
100.374093975663
100.373886586232
100.374008471139
100.374232956735
100.374343431999
100.374324164204
100.374399999376
100.374677590362
100.37489609781
100.375196048981
100.375343908266
100.375445075433
100.37546068361
100.375295706453
100.375058042463
100.37470973798
100.374773933433
100.374906394633
100.375204453198
100.375352937853
100.375400646544
100.375401110096
100.375299680217
100.375125226262
100.375072223903
100.375003797463
100.374835317159
100.374579105244
100.374215822807
100.373763713681
100.37356167756
100.373363570229
100.373262152366
100.373061244926
100.372948795594
100.372757031772
100.372935711558
100.372827160124
100.372979339411
100.372912536608
100.372802440695
100.372633780462
100.37280116165
100.372642653834
100.372553264672
100.372414689642
100.372262851801
100.372083901888
100.371874884229
100.371977330322
100.371738722919
100.371522328935
100.37130300328
100.371060201558
100.370780884066
100.370495628675
100.370007421697
100.370260913266
100.370609522444
100.370878304423
100.371119449889
100.371359100545
100.371588256048
100.371824500957
100.371666884435
100.37171663947
100.371915598465
100.372104772529
100.372328941352
100.372450851283
100.372630980688
100.372464490738
100.372525786051
100.372714229962
100.372795572029
100.37274989799
100.372680173943
100.372512184966
100.37231925374
100.371999216627
100.371972843781
100.372022429285
100.372393507107
100.372648299268
100.373062311639
100.373394655376
100.373839685045
100.374133841504
100.374242092541
100.374045550888
100.374158727808
100.374265246103
100.374479498197
100.374442499521
100.374575446407
100.374650267162
100.374867118847
100.375226745826
100.375100359954
100.375231376831
100.375303771193
100.375211568115
100.375215608536
100.375160027185
100.374943118637
100.374698564668
100.374557382044
100.374288219024
100.37392908362
100.37366446581
100.373274003054
100.373180494525
100.37304241128
100.373040528326
100.372977222514
100.37303997582
100.372943192922
100.37318423903
100.373048040896
100.373243366608
100.373136688729
100.37311001007
100.37292583357
100.373027746292
100.372893915442
100.372798779194
100.372709679419
100.372608850367
100.37240351309
100.372380438352
100.372202653611
100.372012724203
100.37179588458
100.371581567338
100.371357955615
100.371084030761
100.370788051274
100.370481663233
100.37014446387
100.369734958522
100.36936440857
100.369724166193
100.370122390359
100.370333192985
100.370651924851
100.370950939221
100.371217866057
100.371450115384
100.371688583415
100.371918695057
100.372183967477
100.372373838017
100.37225693198
100.372364376915
100.372497058041
100.372584122519
100.372718216866
100.37292431798
100.372807871787
100.372813664514
100.372893021534
100.373077060264
100.372946457194
100.372906302577
100.372650168308
100.372220838765