/*--------------------------------*- C++ -*----------------------------------*\
| =========                 |                                                 |
| \\      /  F ield         | OpenFOAM: The Open Source CFD Toolbox           |
|  \\    /   O peration     | Version:  v1612+                                |
|   \\  /    A nd           | Web:      www.OpenFOAM.com                      |
|    \\/     M anipulation  |                                                 |
\*---------------------------------------------------------------------------*/
FoamFile
{
    version     2.0;
    format      ascii;
    class       volScalarField;
    location    "0.3";
    object      p;
}
// * * * * * * * * * * * * * * * * * * * * * * * * * * * * * * * * * * * * * //

dimensions      [0 2 -2 0 0 0 0];

internalField   nonuniform List<scalar> 
80571
(
100.26565733374
100.265240315801
100.26469970954
100.267590203064
100.272049373669
100.272077304534
100.272473802
100.273172667776
100.271002143022
100.27105695589
100.271248714577
100.271131967851
100.271242432427
100.271418997323
100.271171356177
100.271025627142
100.273189955004
100.272464102737
100.27206500168
100.272040940427
100.272748177098
100.273294166851
100.271017021524
100.271330373606
100.271590001603
100.270902126765
100.270902096931
100.27159019038
100.271330464687
100.271017318221
100.27329823674
100.272751277573
100.272042302605
100.272065282069
100.272463121781
100.273187807033
100.271026889776
100.271172390563
100.271417759544
100.271243137582
100.271133116162
100.271249696653
100.271059877087
100.271004470863
100.273171470327
100.272472976221
100.272077461825
100.272050970117
100.272760987383
100.273310584677
100.271021730641
100.271336129495
100.271599079839
100.270911235727
100.270911679325
100.271600150005
100.271336832352
100.271021597597
100.27330711751
100.272758136635
100.268004689032
100.26827514646
100.267628675018
100.267334781992
100.267696715491
100.267970894794
100.2679708571
100.267696268984
100.26733349741
100.267628215498
100.268275993993
100.268004723683
100.267591002365
100.267971765606
100.268690681212
100.269089167261
100.269141313144
100.269270546995
100.26889545431
100.269268805641
100.269331956002
100.268925342762
100.269235786877
100.269130964946
100.269094080313
100.268686139498
100.267979926748
100.267584015985
100.268000495996
100.268268234724
100.267621212601
100.267326419052
100.267688090157
100.267962862361
100.267963063959
100.267688686995
100.267326854157
100.267621542997
100.268268511537
100.268001204679
100.267583367664
100.267979802126
100.268685789013
100.269094423052
100.269130164659
100.269232642021
100.268923552741
100.269329860088
100.269266623419
100.268894109614
100.269267812375
100.269140473729
100.269089656202
100.268690141491
100.267971236775
100.26520069355
100.266227633656
100.26454793297
100.265191784485
100.265509448555
100.265253216767
100.265808668958
100.263915099998
100.263889254638
100.264910434741
100.264910601575
100.263887889232
100.263912498996
100.265807701021
100.2652559059
100.265331130267
100.264700365948
100.265199955201
100.266227813606
100.2663942454
100.267633121841
100.267844846239
100.266734545244
100.266635554588
100.266585801173
100.266642556142
100.26776357683
100.267596359026
100.266385322022
100.266222952895
100.265200300875
100.264698986186
100.265324352079
100.265246698901
100.265800241609
100.263905614293
100.263880472681
100.264903171662
100.264903318966
100.263880862874
100.263906338361
100.265800787183
100.265246361076
100.265325197942
100.264698258449
100.265201110875
100.266222705697
100.266386853698
100.267595925883
100.267756457669
100.266637927414
100.266583478985
100.266633422212
100.266728971565
100.267836940247
100.267632394902
100.266397533167
100.264537756101
100.256479611331
100.256810433715
100.256862931022
100.257056133619
100.257320853118
100.266208590508
100.264884800158
100.265052065378
100.2650513814
100.264882286657
100.266209952477
100.265510003106
100.265186025062
100.265239454433
100.26454898816
100.264531458114
100.2646527785
100.269040748643
100.266298127945
100.266228126442
100.268954188968
100.264647060733
100.264532726382
100.264562807733
100.265164413036
100.265236585
100.265655393577
100.266500839931
100.267242435808
100.267112553302
100.267650400691
100.269893793181
100.269925001092
100.268513963427
100.267121271547
100.266134007469
100.26552163413
100.265236786649
100.265236800907
100.265521652721
100.266133956933
100.267121091552
100.268513791733
100.27036342236
100.270588283576
100.269081192331
100.26743155832
100.26621751695
100.265377268008
100.264873863134
100.264625560454
100.264625551134
100.264873844377
100.265377287892
100.266217617993
100.267431774241
100.269081714425
100.270587786979
100.270363011903
100.268419683303
100.268725802989
100.268543854859
100.268083110054
100.267856620304
100.267284737651
100.268065376742
100.267799042317
100.266291412149
100.263226350397
100.257904556963
100.25648795351
100.25680996134
100.256876744596
100.257068450633
100.257325938474
100.257325978879
100.257068502731
100.256876488342
100.256810388238
100.256488617591
100.25655648303
100.256543997363
100.255373655995
100.255237619239
100.255311602799
100.255172398807
100.255241325837
100.255302801455
100.255302718558
100.2573211796
100.257056009312
100.256862889296
100.256810030392
100.256478637238
100.256541176058
100.25655397932
100.255374524435
100.255235954756
100.255308670356
100.255186807084
100.255251679052
100.255309835008
100.255309921697
100.25525200715
100.255186289735
100.255309277859
100.255235252796
100.255375360155
100.255819503734
100.255822508235
100.255701567499
100.255742153389
100.255620863761
100.255660388566
100.255656875383
100.25565680492
100.255659591186
100.255240952445
100.255172908303
100.255310969216
100.255238197902
100.255372732223
100.255821307944
100.255818443273
100.255699822045
100.25574286613
100.255627384113
100.255665009772
100.255663353748
100.255663434778
100.25566558259
100.255627470762
100.255743997384
100.255700171799
100.255450456529
100.255496650071
100.255495932617
100.255450120085
100.255521164477
100.255460725979
100.255477943452
100.255464851323
100.255464559797
100.25547684363
100.255460056431
100.255620703151
100.25574083763
100.25570107724
100.255448201743
100.255493756126
100.255494656367
100.255449033717
100.25552072541
100.255463468759
100.255479913734
100.255468342161
100.255468615536
100.25548073238
100.255463702723
100.25552270145
100.25450494796
100.254438146787
100.254475543399
100.254473444139
100.254433870673
100.254504110586
100.254471640336
100.254485445101
100.254494399208
100.254493931467
100.254483999264
100.254470076856
100.254500594616
100.255518980927
100.255688010311
100.254620862931
100.254430697651
100.25446981751
100.254472054313
100.254436237668
100.254500820071
100.254472642441
100.254488380026
100.254498438773
100.254498769459
100.254489551854
100.254473534245
100.25325291239
100.253280586874
100.253226210142
100.253281005042
100.253279262173
100.253222552407
100.253276139694
100.253249179885
100.253254239033
100.253283691635
100.253283074041
100.253251308202
100.25324661055
100.253269812908
100.253218872856
100.253273340915
100.253274682376
100.253221914968
100.253274611791
100.253251303154
100.25325737986
100.25328966532
100.253289938344
100.253260141066
100.251935215802
100.251968762428
100.251991469604
100.25192075572
100.252005379382
100.252002781584
100.251917343458
100.251985496303
100.251961530682
100.251926261709
100.251987967858
100.251987688954
100.251921164149
100.251957142902
100.251977664616
100.251910504967
100.251992463167
100.251994026632
100.251912248336
100.251984431337
100.251963228355
100.25192885966
100.251997310801
100.251996631117
100.250406207634
100.250242892368
100.250367082688
100.250383178159
100.250243234733
100.250420206692
100.250413953236
100.250235016132
100.25037524893
100.250356501367
100.250232508363
100.250393065393
100.250396883934
100.250223769053
100.250347982423
100.250365382994
100.25022399039
100.250397171177
100.250400362619
100.250226168799
100.250371705357
100.250354607543
100.250231542238
100.250412482031
100.248116201992
100.2481144963
100.247666157283
100.247973505075
100.247985357628
100.247686944207
100.248120245297
100.248107105736
100.247666076663
100.247971957929
100.24796246905
100.247652095413
100.248102023186
100.248099184329
100.247638353396
100.247946060349
100.247958723687
100.247648273756
100.248083766153
100.248088614852
100.247652580492
100.247968271393
100.247960408115
100.247654369482
100.242756429178
100.244037636087
100.244036531029
100.242768521447
100.243591064765
100.243586999426
100.24281328931
100.244058858008
100.244024871926
100.242760703791
100.243569132351
100.243573064505
100.242755683332
100.244023867542
100.244016285292
100.242729833981
100.243547815791
100.243549370707
100.242733098492
100.24399165816
100.24399852917
100.242738963609
100.24356453145
100.243568713333
100.236992013238
100.235158752401
100.2380520479
100.238057585867
100.235175506993
100.237016948044
100.236999506647
100.235339169763
100.238168022582
100.238055345529
100.235146478636
100.236981684539
100.236997299859
100.235166609308
100.238046852942
100.238022056576
100.235109725586
100.236965350811
100.23695914925
100.235110547382
100.23801362813
100.238030458221
100.235143832614
100.23697612987
100.245894694533
100.245999833122
100.24417753627
100.246695580441
100.246764921127
100.244547707373
100.245949249821
100.24586136233
100.244304978304
100.246593061485
100.24671493002
100.244206691886
100.245943292528
100.245954000967
100.244547155013
100.246727752962
100.246631779121
100.244119945965
100.245982043488
100.245925680407
100.244221770347
100.24671712429
100.246776886531
100.24450493238
100.281209747408
100.276025793796
100.276426202941
100.281623914572
100.277464559957
100.27752165469
100.281752839902
100.276529339422
100.276086694615
100.281297712372
100.277311003099
100.277294005724
100.281261328962
100.276062730522
100.276471418481
100.281649725774
100.277417306923
100.277386322696
100.281565783332
100.276399487399
100.276000031392
100.281186549607
100.277259165213
100.277269628143
100.315193819018
100.332065282364
100.32088005484
100.331300284875
100.314057452939
100.330819379688
100.320622761802
100.33246624596
100.31507225119
100.315174958146
100.33262431661
100.320800425586
100.330971271731
100.331539989705
100.321169206591
100.332327808047
100.348875276939
100.348877054831
100.332218463911
100.315318273203
100.315402711274
100.362352279078
100.391559986848
100.378714249958
100.378724343201
100.387672783333
100.377285924676
100.365012839714
100.321007539246
100.331433560157
100.330854767682
100.314121259731
100.36886559077
100.389697123516
100.370314556539
100.370365695694
100.377179051519
100.386920894745
100.364060355778
100.320604154154
100.332423082151
100.349064001912
100.31500054134
100.314981666031
100.332393946428
100.320545456476
100.330730531496
100.314010791624
100.331261005387
100.320855664289
100.332061185405
100.315186003172
100.348820093763
100.348794472156
100.378705512963
100.387406466978
100.364784565167
100.377042453511
100.370124837008
100.370350481671
100.377182401511
100.364130564648
100.386979408785
100.37776753929
100.377818514355
100.387035003464
100.377289819729
100.370484812526
100.370370947011
100.377296776294
100.387654779846
100.404888313289
100.40771247955
100.413294762491
100.413293931169
100.407718674865
100.399716968398
100.399708069402
100.414474718275
100.42050833115
100.41951056968
100.41952063933
100.418901131797
100.41749619199
100.415523558353
100.40491239824
100.408547187172
100.407647122656
100.397319803593
100.417023079959
100.418724668491
100.417575732534
100.416062258276
100.416087540485
100.417427365809
100.408161584156
100.397098857591
100.407635560268
100.416729200555
100.418605478699
100.421758292224
100.422236373667
100.42212213792
100.422660118447
100.42288751025
100.422894610876
100.422912242957
100.42296562064
100.423035531627
100.423093510158
100.423109322109
100.423056461021
100.422928715541
100.422749661142
100.422554893827
100.422442761557
100.422633508748
100.423663257822
100.426214622758
100.43214115692
100.441339191278
100.458829108035
100.451337633974
100.405654053223
100.362424101492
100.316746167484
100.29216884602
100.307195805368
100.308010983086
100.305875887492
100.305696774641
100.306675550177
100.30781441266
100.308995482568
100.310363235539
100.311879882975
100.313343083381
100.314538512492
100.315343943712
100.315701763998
100.314989603863
100.314079328546
100.312997622888
100.311735784931
100.310199831526
100.308374894189
100.306398556224
100.304418219581
100.302472371888
100.300579063544
100.298921760915
100.297893319806
100.298106910504
100.299922639821
100.302235001895
100.302606413326
100.30196396254
100.302618093527
100.303187775778
100.303474310917
100.303584514894
100.303825340819
100.304108624579
100.304192926838
100.304216033873
100.304241258988
100.30426635995
100.304286850161
100.304330002117
100.304344628821
100.304402247383
100.304429218656
100.304372620402
100.304247855309
100.304240892334
100.304258120096
100.304433817396
100.304397014426
100.304365123373
100.304417733465
100.304401291822
100.304353841488
100.304335315889
100.304317203577
100.304328862627
100.304284188687
100.304270271176
100.304281131048
100.30424511888
100.304224135172
100.304137681167
100.303928137428
100.30419109373
100.304251067757
100.304270007895
100.304301453677
100.304306066463
100.30434638106
100.304354303136
100.304368132745
100.304410932605
100.304424465662
100.304451630209
100.304389445792
100.304449113612
100.304537215418
100.304509310286
100.304470560221
100.304424007221
100.304382645473
100.3043777959
100.304365828056
100.304332114674
100.304327492685
100.304297371528
100.304287184403
100.304221176151
100.304061267939
100.304290240466
100.304317730161
100.304330231589
100.304356663156
100.304361850712
100.304393267411
100.304413007095
100.304416780598
100.304433737758
100.304442706157
100.304547927386
100.304614010683
100.304632344414
100.304491345506
100.304295702178
100.304585023343
100.304630153202
100.304814306657
100.304900692998
100.304866591641
100.304721674219
100.304702360849
100.304605943384
100.30446953993
100.304455861042
100.304432530687
100.304395306654
100.304387708021
100.304365371902
100.30436260796
100.304316572968
100.304303797565
100.304115990009
100.303908883443
100.304199676907
100.304332258468
100.304363612279
100.304396298832
100.304402646854
100.304422307065
100.304439929544
100.304474824817
100.304477049003
100.304511998231
100.304512378568
100.304682436365
100.304804086453
100.30489151378
100.304874115773
100.304881721788
100.304792305376
100.304771920129
100.304619600083
100.304590918455
100.304538925335
100.30451963229
100.304469891402
100.304441053035
100.304459396476
100.304437934632
100.304407946764
100.304392674735
100.304248950375
100.304107316835
100.30434333689
100.304444413491
100.304454125249
100.304477995274
100.304499185698
100.304548713774
100.304578167068
100.304621970256
100.304663918928
100.304849748845
100.30495658859
100.304980249967
100.304855085471
100.304609182909
100.304849238178
100.30484961537
100.304932517079
100.305065257465
100.305018459528
100.304962310661
100.304936840172
100.304850670831
100.304703687076
100.304670988418
100.304640132212
100.304608577329
100.304599437177
100.304535996759
100.304508400797
100.304508571256
100.30439920615
100.304300697396
100.304510780448
100.30456241173
100.304565742272
100.304638983961
100.30466906121
100.304675891782
100.304705941182
100.304738682117
100.30475789429
100.30489217112
100.304977167716
100.305062004796
100.305036969184
100.305101012616
100.304993891963
100.30495283972
100.304830705077
100.304796427246
100.304758135453
100.304725644435
100.304710600461
100.304692784685
100.304697673988
100.304639048442
100.304584391262
100.30458996718
100.304409595218
100.30433777107
100.304555399032
100.30464849111
100.304660686348
100.304723294855
100.304743166343
100.304754936263
100.304768197114
100.3047959735
100.304824939286
100.304874778481
100.305076073934
100.305198674963
100.305203397733
100.305086204638
100.305193492362
100.305294744038
100.30527998279
100.305245595737
100.305130710353
100.30494089557
100.304908584083
100.304834232413
100.304861664148
100.304841705301
100.304794894257
100.304825504871
100.30481082727
100.304788931006
100.304775068727
100.304717165399
100.304599338801
100.304557304043
100.304715181804
100.304801873786
100.304851510551
100.30485881192
100.304893507462
100.304897974227
100.304926497925
100.30497197454
100.305033731904
100.305053935955
100.305218228226
100.305332817763
100.305329911766
100.305298484867
100.30520269154
100.305248723701
100.305345296274
100.30538923044
100.305258449115
100.305366282658
100.305350599985
100.305363287267
100.305372202432
100.305273619439
100.305154638936
100.305069021052
100.305031683756
100.304955775031
100.305001875537
100.304968001667
100.304921526751
100.304960561833
100.304931762364
100.304922160756
100.304885921407
100.304878596227
100.304812289462
100.304657985584
100.304658657016
100.304816884331
100.304862589331
100.30495289853
100.304958264606
100.304986071112
100.30499256181
100.305007201971
100.305022942059
100.305061560927
100.305098000858
100.305154334866
100.305190813298
100.305329799423
100.305399101227
100.305431806186
100.305290766406
100.305447911004
100.305437616175
100.305483824313
100.305467258301
100.305367451035
100.305251690504
100.30521775932
100.305140830137
100.305134030281
100.305099593335
100.305070041567
100.305059503639
100.305042434598
100.305027048318
100.30501549647
100.304982381616
100.304848399679
100.304814841997
100.304645943697
100.30445903461
100.304504256599
100.304297486185
100.30411267405
100.304180302764
100.303994265591
100.303800466795
100.303666038592
100.303768280345
100.303653817891
100.303559721953
100.303312834285
100.302781901279
100.302108894422
100.302505901957
100.302561376533
100.300613788975
100.298495248877
100.29792232417
100.298648990071
100.30012868139
100.301942117499
100.303848054267
100.305783798686
100.307722631181
100.309523704731
100.311073270589
100.312360965125
100.313463534013
100.314396884877
100.315127869325
100.3156934082
100.31624897127
100.316624268672
100.316093000043
100.315393854154
100.314495446618
100.313410388756
100.312140761012
100.310604735164
100.308785139818
100.306813905429
100.30482041427
100.302855140345
100.300921307393
100.299157491085
100.297939097706
100.297901805815
100.299498017335
100.302008892899
100.302654067853
100.301875251554
100.302504183722
100.303113618824
100.303419396227
100.30355434723
100.303759130653
100.304032526201
100.304141418295
100.3041710192
100.304196563154
100.304229171583
100.304255256767
100.304294697245
100.304340448331
100.304440818214
100.304523167599
100.304497485447
100.304375469886
100.304278366848
100.304026487564
100.303546863383
100.302704291416
100.302772697088
100.30292497873
100.303571516616
100.303594163093
100.303524269594
100.303987275193
100.30400059949
100.304018867488
100.303650841731
100.303881252142
100.304030757549
100.303475928463
100.302799950454
100.303263126867
100.30348410463
100.30374823939
100.304288524059
100.304271162839
100.304109726141
100.303832079526
100.303673229061
100.303964800177
100.304274731296
100.304340389924
100.304418573101
100.304362991597
100.304387989314
100.304368531375
100.304335783914
100.304300053327
100.304267097978
100.304237089604
100.304219709896
100.30419918594
100.30419150764
100.304217973802
100.304246608128
100.304270964852
100.304312948578
100.304342457348
100.304414289456
100.304459717285
100.30440834067
100.304425889544
100.304454481608
100.304414634544
100.304297164717
100.304285935341
100.304236710259
100.304213918319
100.304241295587
100.304287921213
100.304332636913
100.304478532282
100.304582009452
100.304612502073
100.304422735876
100.304202650639
100.304367354226
100.30406629161
100.303622308989
100.302774373997
100.301475756497
100.300121916396
100.298185727217
100.299463228565
100.300173523228
100.300410798932
100.300827352329
100.301168082857
100.301538418298
100.302459863878
100.302623609576
100.302394206288
100.301970808817
100.301666589697
100.301448344892
100.300988351259
100.302104341155
100.30253690785
100.303369879285
100.303746758883
100.304114680778
100.304230814912
100.304219879683
100.304183869449
100.304178715715
100.304164857739
100.304155381342
100.30418276861
100.304216744131
100.304208597812
100.304232875249
100.304283308732
100.304324102156
100.304505283581
100.304590637161
100.304646819372
100.304476403218
100.304216073695
100.303568661676
100.302808829888
100.30280447479
100.301507984927
100.300087116726
100.297915407856
100.295311893398
100.292107487417
100.292887883563
100.294000764477
100.29489710982
100.29580207968
100.297477247457
100.297774072
100.297212143706
100.296851807643
100.295871312302
100.29504477829
100.297191403681
100.298449180764
100.298470054083
100.30163737133
100.303426942693
100.303766625449
100.3040138148
100.304001596801
100.304126928076
100.304115637154
100.304144852136
100.30417391339
100.304168870524
100.30420395872
100.304227338389
100.304280317088
100.304319489505
100.304522076211
100.304608507005
100.304665399045
100.30446686776
100.30419683335
100.303512323905
100.302738369473
100.301428496212
100.299994878976
100.297631923191
100.297790549419
100.295127251502
100.291702416023
100.287666091662
100.282643166014
100.262018454505
100.27158793229
100.282115162895
100.283912253109
100.28822318192
100.289257104185
100.284069702979
100.287380313793
100.289748322179
100.291637012386
100.293435579663
100.294591623498
100.295931391305
100.296138716377
100.295210070846
100.293624439359
100.292248248156
100.290955668726
100.290353907293
100.293110575205
100.295431581331
100.296359469549
100.299022407368
100.301980546224
100.303762800106
100.303915811767
100.304083078476
100.304063976043
100.304168229947
100.304180502961
100.304153990546
100.304144006181
100.304135461026
100.304130938645
100.304110420779
100.304139304857
100.304139077685
100.304168278474
100.304203790974
100.304227859653
100.304279831994
100.304318126884
100.304520899086
100.304605501071
100.304669514777
100.30445500503
100.304209059143
100.303484002959
100.302730978364
100.301417156853
100.299968481664
100.297599178264
100.294850655495
100.291350396006
100.291315088801
100.28695174447
100.281907335932
100.257288582575
100.229516793526
100.16852705325
100.183970510943
100.188578069326
100.19248534803
100.192377668307
100.200302806113
100.197207897758
100.193974719998
100.195898193725
100.20112779213
100.200137521201
100.197443160025
100.207902540583
100.202171295869
100.202319105531
100.210413640025
100.203358766344
100.202036900064
100.210155621191
100.205472047439
100.199029222326
100.208022782617
100.204359758113
100.197378986384
100.205933807399
100.202662380859
100.195077628852
100.206422543327
100.207627833968
100.205042038299
100.204101869982
100.201968745583
100.200376303581
100.199924432902
100.200039783794
100.200015073139
100.200347748235
100.200608145549
100.200613278378
100.200269766953
100.200482887811
100.200656139712
100.200703720949
100.200513568093
100.200447900919
100.200823758208
100.20051486161
100.200352784896
100.200294027283
100.200493141946
100.200615461753
100.199903311159
100.199913904974
100.200576056835
100.200464087712
100.200261351665
100.200365546258
100.200519694268
100.200830366804
100.200450841992
100.200515601717
100.200703722088
100.200656919047
100.200484921629
100.200273216808
100.200616111743
100.200612506445
100.200351376091
100.2000158439
100.200036808983
100.199924861188
100.200382800282
100.201367056151
100.202440633353
100.202452397373
100.201357993227
100.201857703534
100.202847999615
100.202871718114
100.201876870695
100.201987597659
100.201741166451
100.201236553849
100.201943035705
100.202170537784
100.200745861834
100.201241315818
100.200950439008
100.201121984831
100.201540868617
100.200652042795
100.201333169817
100.201810773995
100.201929498154
100.202395957798
100.200861252006
100.201850893389
100.201167572896
100.201057307042
100.200654313509
100.201177766268
100.203034230652
100.201693812924
100.200463449775
100.20163514538
100.201620792003
100.200446868373
100.201163220695
100.200650082358
100.20104908802
100.201175819481
100.201847776033
100.200851716848
100.202402625599
100.201926399386
100.201803689418
100.201329929472
100.200644000998
100.201538618039
100.201119911857
100.200945219105
100.201236750765
100.200737557312
100.202168519765
100.201940177797
100.20123001742
100.201728894888
100.203909172308
100.203237491679
100.204287894723
100.20167220388
100.200101707691
100.204260854856
100.203351166293
100.202752246525
100.203459583208
100.201717904906
100.20274205846
100.200340039138
100.206300062907
100.205623762871
100.205877228602
100.202091500842
100.201246427688
100.201242549484
100.202091796014
100.204105145421
100.203920589315
100.203247923965
100.203468467694
100.202765406015
100.203358480845
100.203188004801
100.201090908291
100.202096522488
100.203282266691
100.204258261312
100.202337052995
100.202709266261
100.203517807253
100.20470273436
100.202111937218
100.20148873185
100.201983627896
100.202047134264
100.202022245207
100.201583261944
100.20182038119
100.202639504617
100.20263541502
100.201810446312
100.201568439974
100.202034409913
100.201978583496
100.202102162475
100.204710228448
100.2035153125
100.20270494436
100.202324930482
100.204266337087
100.203296213785
100.202101311867
100.201089445057
100.203203751998
100.202265473942
100.201047479558
100.202163946025
100.201437929154
100.202738104283
100.201099511272
100.200410303952
100.202714609076
100.203317167392
100.203905734998
100.202756120566
100.204265384666
100.202372025893
100.201537367851
100.203945619873
100.205409755358
100.205824645793
100.203725232956
100.205012071678
100.201247234279
100.202133078673
100.204513390484
100.203665543442
100.205955147614
100.20518321383
100.206069683749
100.203732490682
100.199921463833
100.20215700955
100.200449011194
100.197200627334
100.19039033363
100.191853593532
100.18591628639
100.190693265468
100.18048362523
100.173921516546
100.17725161258
100.180665779433
100.161266192
100.237291402501
100.259207048075
100.224158289362
100.250384018179
100.269568599356
100.277657911223
100.283767070935
100.283404819409
100.278923330854
100.272421713171
100.279973648397
100.283801639781
100.286550021873
100.288755311082
100.286628350997
100.290185577999
100.292046498032
100.29368534703
100.29477338139
100.294574859123
100.292828620418
100.291202356991
100.29067211563
100.292294098252
100.293522223521
100.293316224393
100.293924112281
100.292119740992
100.292490499557
100.291097447385
100.290105310404
100.289879628783
100.290411216986
100.291829214131
100.289285520291
100.290124612381
100.289866660429
100.292535378927
100.290802050774
100.292505593521
100.293217657642
100.294594888089
100.295658632081
100.297451964995
100.297216647047
100.296616475757
100.295591163956
100.294478173944
100.292824449889
100.29159075426
100.290438043165
100.291979601558
100.291021143966
100.291101491755
100.292924993952
100.292328747061
100.292674994922
100.291129927103
100.298618975194
100.297704149455
100.297698255917
100.297003691858
100.298210988896
100.297910557989
100.300146419127
100.300841842612
100.299748209241
100.299766973003
100.300500962344
100.296753537791
100.297512905568
100.297786381345
100.299640413148
100.298569786731
100.30019726126
100.298725604295
100.299091631536
100.298921316066
100.298387303445
100.298473694862
100.297832177522
100.297658994345
100.297519562042
100.296579700323
100.29533925646
100.293863580749
100.293535931892
100.294891444885
100.293584312366
100.292135552392
100.292426876928
100.290433445302
100.289529162501
100.289877444664
100.292273519761
100.296098214329
100.296380462735
100.295402212288
100.29492891064
100.293950324627
100.299534757047
100.3019324198
100.30151856135
100.30105854061
100.300733777318
100.30074423522
100.303017769603
100.303011056009
100.303031774046
100.302536031479
100.301686124045
100.301936381083
100.301231310251
100.301935794141
100.301591897203
100.30206895522
100.302084421887
100.302440082128
100.302260050754
100.300393409188
100.301265553903
100.300775607306
100.299842684165
100.30028244451
100.300103225803
100.300455633774
100.300139498496
100.299906963806
100.299089791213
100.300894870765
100.302195011795
100.304144791571
100.304628642162
100.304870377812
100.304804797312
100.30461435813
100.304346424396
100.304078991528
100.303972165279
100.303844433957
100.303566391012
100.303435795851
100.303393595139
100.303330805157
100.303325423902
100.30333382224
100.303399483508
100.303547188876
100.303739922825
100.303986429359
100.303975771112
100.303975598859
100.30411021131
100.304115064212
100.304144232352
100.304172868207
100.304207574803
100.304231846585
100.304281020411
100.304320372955
100.304501325174
100.304584161823
100.30464662857
100.304458853289
100.30423184981
100.303535043881
100.302789115166
100.301444170403
100.300005323636
100.29774004585
100.295089550358
100.291760574659
100.287787388056
100.282885823096
100.262329366241
100.257553693691
100.229794432067
100.168068488961
100.183883260182
100.188513491075
100.192494312368
100.192403733981
100.200219884295
100.200197273494
100.197541618934
100.208025208855
100.20216705984
100.202367681124
100.210429082749
100.203389466498
100.202074048766
100.21019411039
100.20552410252
100.19907983799
100.208023678789
100.20439561067
100.197384159529
100.205943419726
100.202689516325
100.195082392409
100.206305004419
100.205617291543
100.205943955825
100.206037717394
100.205068663571
100.207667415763
100.201673871811
100.204293533039
100.202073885289
100.204266222721
100.200127163376
100.201052604308
100.202262389429
100.203446852787
100.20417466835
100.203136688615
100.202430459713
100.200960628018
100.201389201184
100.2039197707
100.203745679677