/*--------------------------------*- C++ -*----------------------------------*\
| =========                 |                                                 |
| \\      /  F ield         | OpenFOAM: The Open Source CFD Toolbox           |
|  \\    /   O peration     | Version:  v1612+                                |
|   \\  /    A nd           | Web:      www.OpenFOAM.com                      |
|    \\/     M anipulation  |                                                 |
\*---------------------------------------------------------------------------*/
FoamFile
{
    version     2.0;
    format      ascii;
    class       volScalarField;
    location    "0.6";
    object      p;
}
// * * * * * * * * * * * * * * * * * * * * * * * * * * * * * * * * * * * * * //

dimensions      [0 2 -2 0 0 0 0];

internalField   nonuniform List<scalar> 
80571
(
100.260567828079
100.260150794159
100.259610216156
100.262500721247
100.266959900479
100.266987814231
100.267384306437
100.268083161898
100.265912620266
100.265967438388
100.266159199968
100.266042456715
100.26615292906
100.266329505076
100.266081878043
100.265936160351
100.268100513995
100.267374678526
100.266975596343
100.266951566545
100.267658824623
100.268204840465
100.265927725252
100.266241103551
100.266500758494
100.265812917902
100.265812912892
100.266501040214
100.266241339693
100.265928217889
100.268209163098
100.267662224895
100.266953266944
100.266976269455
100.267374122493
100.268098818239
100.265937913955
100.266083415645
100.266328785739
100.266154162241
100.266044133824
100.26616070399
100.265970874031
100.265915469675
100.268082404621
100.26738387948
100.266988359605
100.266961833721
100.267671827174
100.268221394663
100.265932507128
100.266246878239
100.266509800624
100.265821921442
100.265822337627
100.266510776729
100.2662474354
100.265932177754
100.26821767458
100.267668676812
100.262915221714
100.263185697691
100.262539248533
100.262245382998
100.26260733859
100.262881551869
100.262881548397
100.262606990121
100.262244242812
100.262538992846
100.263186805183
100.26291556759
100.262501876535
100.262882668616
100.263601620181
100.264000128747
100.264052291228
100.264181540959
100.263806466116
100.264179828681
100.264242985666
100.263836376673
100.264146818809
100.264041998047
100.264005100091
100.263597146354
100.262890916
100.262494988663
100.262911450386
100.263179165886
100.262532117226
100.262237294807
100.26259894427
100.262873687486
100.262873852474
100.262599443317
100.262237586308
100.262532244182
100.26317918305
100.262911848326
100.262493986229
100.262890399163
100.263596362422
100.264004975485
100.264040691697
100.264143158238
100.263834056203
100.264240351907
100.264177108088
100.263804588523
100.264178291671
100.264050950638
100.264000135912
100.26360063042
100.262881741356
100.260111184801
100.261138099457
100.259458307223
100.260102201058
100.260419929258
100.260163759475
100.260719233904
100.258825694084
100.25879987115
100.259821082421
100.25982128845
100.258798607905
100.258823239018
100.260718470869
100.260166707998
100.2602419729
100.25961124791
100.26011086893
100.261138773263
100.261305226923
100.262544122022
100.262755866807
100.261645571332
100.261546592584
100.261496845978
100.261553604472
100.26267463208
100.262507415198
100.261296368043
100.261133986248
100.260111303163
100.259609970263
100.260235314028
100.260157633406
100.260711150322
100.258816493251
100.258791329575
100.259813997491
100.259814106715
100.258791618944
100.258817072698
100.260711491309
100.260157036283
100.260235839055
100.259608869224
100.260111699213
100.261133259428
100.261297386125
100.26250643454
100.262666951489
100.261548418191
100.261493958974
100.26154389491
100.261639438907
100.262747400365
100.26254285175
100.261307990981
100.259448124996
100.251389797392
100.251720623612
100.251773191525
100.251966485149
100.25223132905
100.261119143857
100.259795400212
100.259962698583
100.259962059537
100.259793003322
100.261120640859
100.260420799902
100.260096921168
100.26015036453
100.259459995495
100.259442538629
100.259563929603
100.263951803083
100.261209186245
100.261139193513
100.263865263935
100.259558239317
100.259443883474
100.259473933381
100.26007547895
100.26014759895
100.260566392663
100.261411823826
100.262153419374
100.262023517954
100.262561366928
100.264804757775
100.264835979929
100.263424950055
100.262032226013
100.261044921246
100.260432501422
100.260147602375
100.260147564152
100.260432364422
100.26104462168
100.26203171554
100.263424380384
100.265273999217
100.26549884965
100.263991737838
100.262342129996
100.261128123794
100.260287917771
100.259784561846
100.259536313947
100.259536357533
100.259784706254
100.260288198786
100.261128572613
100.262342763796
100.263992727119
100.265498790409
100.265274008335
100.263330686134
100.2636368215
100.263454877935
100.262994116415
100.262767623608
100.262195756299
100.262976393049
100.262710059612
100.261202454432
100.258137449434
100.252815840699
100.251399335972
100.251721287674
100.251787944523
100.25197951891
100.252236863392
100.2522367484
100.251979132476
100.251786993405
100.25172076475
100.251398914796
100.251466733253
100.2514542065
100.250283672083
100.250147624723
100.250221614387
100.250082489555
100.250151513841
100.250213161233
100.250213295612
100.252231813499
100.251966802176
100.251773842882
100.251721181976
100.251389909217
100.251452514922
100.251465358678
100.250286173041
100.25014755527
100.250220173022
100.250098169526
100.250162881438
100.250220812641
100.250220676742
100.250162561214
100.250096702903
100.250219544426
100.250145421255
100.250285431327
100.250729222485
100.250732139764
100.250611124208
100.25065170641
100.250530550741
100.250570186425
100.250567006592
100.250567186621
100.250570423264
100.250151795622
100.250083944758
100.250222243712
100.25014963709
100.250284329971
100.250733445943
100.250730656159
100.250612018404
100.250654876073
100.250539065833
100.250576430256
100.250574381512
100.250574191523
100.25057599978
100.250537684038
100.250653955181
100.250610002079
100.250359869106
100.250405886239
100.25040501402
100.250359118901
100.250430139085
100.250369857642
100.250387252223
100.25037451582
100.250374778647
100.250387674672
100.250371428823
100.250531842257
100.250652496806
100.250612999639
100.250360773715
100.250406687002
100.250407720962
100.25036198334
100.250433391378
100.250375607463
100.250391652838
100.250379525996
100.250379256794
100.25039095091
100.250373604271
100.250432244023
100.249413762391
100.249346989671
100.249384055575
100.249381721835
100.24934198608
100.249412118241
100.249379767241
100.249393837599
100.249403271647
100.249403761065
100.249394690585
100.249381863464
100.249413632432
100.250431151274
100.250600124743
100.249533798834
100.24934433361
100.249384134174
100.249386571097
100.249350424968
100.249414670451
100.249385524936
100.249400576104
100.249409758205
100.249409179363
100.249399402368
100.249382895073
100.248161483834
100.248188461361
100.24813404191
100.248188452008
100.248186392827
100.248129330504
100.248182636098
100.248155737708
100.248160905216
100.248191173161
100.248192052115
100.248162124286
100.248158926936
100.248184223007
100.248134318509
100.248190075451
100.248191715096
100.248138317875
100.2481902324
100.248165421904
100.248170254825
100.248200916165
100.248199877902
100.248169079776
100.246842676681
100.246875607453
100.24689814139
100.246827223757
100.246911426798
100.246908381655
100.246822229167
100.246889625783
100.246865479119
100.246830085773
100.246892850902
100.246895295703
100.246831512487
100.246870579526
100.246894066428
100.246829162463
100.246913408553
100.246915321024
100.246832197067
100.246902779924
100.246879126095
100.246842413634
100.246908191953
100.246905594428
100.245313322956
100.245147703592
100.245271534742
100.245287503773
100.245147944914
100.245324654745
100.245317780299
100.245137393465
100.245275656396
100.245255929965
100.245131873987
100.245292789095
100.245304413663
100.245132239357
100.2452632549
100.245284974673
100.245147855385
100.245324884979
100.24532850847
100.245151816543
100.245294265399
100.245272681277
100.245145372565
100.245322231433
100.243024702078
100.243017822381
100.242566325677
100.242874529059
100.242886531344
100.242589508088
100.243023217135
100.243009285879
100.242565439845
100.242867086389
100.242852810496
100.242543689516
100.242995706156
100.242998550199
100.242545948151
100.242862309856
100.242883057599
100.242581319746
100.243021749572
100.243027301496
100.242588105771
100.242897747898
100.24288274312
100.242570106954
100.237671833461
100.238941945732
100.23893200767
100.237659494984
100.238486379109
100.238483248129
100.237713438162
100.238960526537
100.238925775199
100.237656831913
100.238457167474
100.238457335243
100.237631103693
100.23890287409
100.238904478341
100.23763190531
100.238467888127
100.238482906028
100.23768335989
100.238949101034
100.238957304166
100.237693266063
100.238503359181
100.238498910363
100.231931725401
100.230071054095
100.232948056649
100.232939680114
100.230049143635
100.231901989094
100.231887697706
100.230237770848
100.233069817548
100.23295719298
100.230041024219
100.231858816191
100.231866254104
100.2300127072
100.232901034641
100.232892802668
100.230000830477
100.231893550526
100.231903951391
100.230089311172
100.233000373573
100.233020627837
100.230131650382
100.231929458897
100.240859455378
100.24094511312
100.239098015874
100.241579458564
100.24162250063
100.23938385429
100.240821496682
100.240739783958
100.239207830403
100.241501118704
100.241623899229
100.239101089055
100.240811362992
100.240807043981
100.239328062108
100.241539448661
100.241478673065
100.239018597509
100.240918474003
100.240890917182
100.239206841532
100.241740527789
100.24181517013
100.239566755753
100.276285819353
100.271020819798
100.271384811461
100.276513100804
100.272321047115
100.272354268119
100.276563008098
100.27138537088
100.270955764122
100.276207437647
100.272229938534
100.27221998407
100.276179370269
100.270920720532
100.271294954066
100.276398590794
100.272185998459
100.27218547765
100.276401447633
100.271336462627
100.27098760789
100.276272640698
100.272339395614
100.272346657712
100.310357458003
100.327225725266
100.316004217217
100.326351032386
100.30904750444
100.325758116203
100.315486910029
100.32729383247
100.309885445633
100.309959263215
100.327390476778
100.315566195808
100.325764194996
100.326418496912
100.316099060677
100.327285759414
100.343889615221
100.343911146969
100.327200615436
100.3102950227
100.310365688096
100.357318008931
100.386553089017
100.373763047582
100.373813643869
100.382796372647
100.372273184119
100.360041179286
100.315963142479
100.326324493733
100.32559935459
100.308949146418
100.363703367469
100.384537457836
100.365220047554
100.365109039795
100.371842435368
100.38143994208
100.358677127925
100.315289895795
100.327096209932
100.343691575013
100.309692965221
100.309707609588
100.327136286054
100.31533863177
100.325630618461
100.308991991647
100.326337732456
100.316014929609
100.327250075538
100.31036316752
100.344064118683
100.344019210255
100.373968435584
100.382623719996
100.359947353674
100.372163282556
100.36517604804
100.36528058154
100.372035505763
100.358949645395
100.381735702117
100.372502167342
100.372522929806
100.381704543466
100.372037540792
100.365273769519
100.365254599126
100.372231345354
100.382670591772
100.399909813865
100.402732822199
100.408316384504
100.408329571707
100.402818308003
100.394814086897
100.394754000144
100.409506099364
100.415513778635
100.414523072844
100.414553579003
100.413885464403
100.412548013438
100.410637201292
100.400061920224
100.403805169492
100.402439981412
100.392305203625
100.412175736698
100.413805358854
100.412722780268
100.410921997175
100.410941209994
100.412006531818
100.402652850125
100.391782825188
100.402506270092
100.411381522859
100.413320463387
100.41653016873
100.417042445241
100.416978908366
100.417521942375
100.41777266666
100.417783812762
100.417821937434
100.417872604551
100.417917859786
100.417957990825
100.417996071127
100.418041442789
100.418108691837
100.418230513555
100.418429678
100.418768438745
100.419384520397
100.420738144384
100.423402298019
100.429118440634
100.437820539969
100.454488537938
100.446750349667
100.400881948183
100.357323992435
100.311387002936
100.286708941564
100.301785803454
100.302579119752
100.300393223187
100.300154190923
100.301072647046
100.30218380653
100.303365830979
100.304752861546
100.306297614282
100.307783932667
100.308985349709
100.309786788224
100.310148037443
100.309424853113
100.308486452135
100.307354096794
100.306023698751
100.304437963427
100.3026454204
100.300852983048
100.29925889295
100.29800749279
100.29710210831
100.296497386297
100.296069315513
100.295724829982
100.295397807658
100.2950359742
100.294643056049
100.294311339326
100.294384604558
100.295339373701
100.297460220124
100.299944412966
100.301123312146
100.301111223731
100.3011484169
100.301110739887
100.301132304406
100.301105937039
100.301106129035
100.301119409209
100.301073697114
100.301071315314
100.30102098785
100.300916599811
100.30077457497
100.300886904162
100.301063877461
100.301236506292
100.301191563573
100.301010641566
100.301081733482
100.301128822757
100.301126034161
100.301160417528
100.301153808728
100.301188338472
100.301175956195
100.301153716975
100.301186390729
100.301173030093
100.30119977632
100.301121078787
100.301217846648
100.301221969024
100.301263339214
100.301236013446
100.301247369672
100.301225618848
100.301236372659
100.301208122799
100.301170831206
100.301184915253
100.301158993992
100.301278981495
100.301237914232
100.301390314644
100.30147493877
100.301439704002
100.301394328637
100.30123646127
100.301219218103
100.301274903022
100.301284337456
100.301283441186
100.30131295947
100.3013040652
100.301339410323
100.301256132419
100.301363012164
100.301448636491
100.301419436147
100.301379584963
100.30137268086
100.301344726716
100.301337285401
100.301358039973
100.301324037511
100.301352969094
100.301393060913
100.301541546913
100.301621245958
100.301647720839
100.301640961838
100.301523708379
100.301747334394
100.301814421817
100.301988364175
100.302103671036
100.302031552131
100.301827208877
100.301736664729
100.30163879776
100.301456372507
100.301476774117
100.301423292722
100.30141862128
100.30142223291
100.301450389188
100.301477352558
100.301489414354
100.301538257571
100.301387340686
100.301292972039
100.301495357446
100.301566712343
100.301550783475
100.301531541125
100.301544354999
100.301505458951
100.301541849754
100.301528337869
100.301558521683
100.301593792447
100.301552330715
100.301742689276
100.301866513563
100.302042419111
100.302041091963
100.302084381455
100.301972499777
100.301914204336
100.301752050022
100.301728205843
100.301658140858
100.301671091232
100.301602382499
100.301537554405
100.301599139818
100.301614663572
100.301614852814
100.301645324504
100.301512634488
100.301602056945
100.30168095825
100.301725541071
100.301688783705
100.301684238382
100.30166420166
100.301731593439
100.301764674731
100.301783137031
100.301815428346
100.302039923612
100.302198466448
100.302319787417
100.302376191244
100.302253174949
100.30244626728
100.302431112879
100.302550809166
100.302632749858
100.302571781981
100.302443744144
100.302254106723
100.302087895409
100.301851762446
100.30183455641
100.301895173177
100.301822621606
100.301887670941
100.301777796313
100.301761489937
100.301819295998
100.301680635049
100.301845169413
100.301906972078
100.301901276388
100.30182422472
100.30190205086
100.301888688054
100.301902993285
100.301850422783
100.301924021669
100.301928095341
100.302174223822
100.30235319832
100.302532603432
100.302565267484
100.30256470637
100.302364947441
100.302329813099
100.302093560054
100.30201337493
100.30191335341
100.301940469629
100.301920864403
100.301960754841
100.301994976452
100.301950567102
100.301958403064
100.302050787728
100.301805218475
100.301985180575
100.302022889596
100.30208369809
100.30201033467
100.302030645369
100.302025147294
100.302071500958
100.30201531003
100.3020830574
100.302020394483
100.302123831771
100.302467450357
100.302690240626
100.302845343362
100.302849786223
100.30292330259
100.302987958354
100.302939774935
100.302737437709
100.302506263809
100.302232121008
100.302160102035
100.302035143729
100.302035912838
100.302099491474
100.30202951388
100.30206913331
100.302145693252
100.302087105791
100.302186466671
100.302133536735
100.301966294631
100.302196326016
100.302162461171
100.302191828076
100.302225482255
100.302141069846
100.30227024489
100.302164969542
100.302262534489
100.302217533422
100.302263259009
100.302415007678
100.30266195927
100.302892029901
100.302911082557
100.302858461425
100.302650035775
100.302706699041
100.302930715832
100.303119347251
100.303042556987
100.303161924744
100.302998693817
100.303015525564
100.303019956617
100.302803723189
100.302544204131
100.302369373742
100.302301681202
100.302212583367
100.30218676292
100.302253796781
100.302198201276
100.302221369114
100.302242672731
100.302250419416
100.302246834991
100.30233446809
100.302317613619
100.302002049679
100.302373953982
100.302244654704
100.302162514133
100.302368018627
100.302270050801
100.302282292205
100.302294960211
100.302249088543
100.302289653183
100.302262608395
100.302426589049
100.302529681852
100.302544518534
100.302854323125
100.303088589738
100.30331948621
100.303255210053
100.303382260328
100.303284175055
100.303262221291
100.303253966641
100.302992162558
100.302695637192
100.302583562106
100.302408093212
100.302395036268
100.302433088504
100.302332887842
100.302410974773
100.302329040009
100.302309326778
100.30240782263
100.302358586892
100.302375739871
100.30252675376
100.302160361575
100.301423950619
100.302101528477
100.301572389439
100.300783562695
100.301593301365
100.301061038784
100.300367850275
100.299499084173
100.300812597469
100.300384094346
100.29851654836
100.296502966082
100.295134593656
100.294553085033
100.294513381718
100.294712929452
100.295011510731
100.295349503862
100.295731395842
100.296189900949
100.296801344052
100.297665438605
100.298835134959
100.300333061794
100.302039397912
100.303772132379
100.305344545851
100.306689403355
100.307840905753
100.308805399812
100.309554008525
100.310122943888
100.310692116504
100.311071944356
100.310548210891
100.309843861195
100.308922175967
100.307790300296
100.306451453089
100.304856773329
100.303048663646
100.301225359599
100.299578832719
100.298269856541
100.297336922505
100.29674366781
100.296356069126
100.296083927146
100.295824803579
100.295491931438
100.295035463665
100.294460011634
100.294079219023
100.294480342811
100.296425478446
100.299427426741
100.301011115351
100.30108798331
100.30109161903
100.301052848422
100.301052706108
100.301034130052
100.301029796852
100.30101864045
100.300995403419
100.300986643918
100.300927787437
100.3008071762
100.30060644763
100.300701180846
100.300480289668
100.30009040943
100.299542561219
100.299820653003
100.300159648651
100.300618981831
100.30052745354
100.300260811601
100.300595802382
100.300756363834
100.300980801364
100.300778990861
100.301023320006
100.301262114891
100.300987696625
100.300570143419
100.300963474245
100.301208671827
100.301513031615
100.301904530883
100.301805845512
100.301585721917
100.301286834494
100.301252070342
100.301317995745
100.301434245792
100.30138100078
100.30131057484
100.301156617159
100.30138248717
100.301399998885
100.301350713616
100.301266790357
100.301194665831
100.301120560948
100.301071617301
100.301034135983
100.30107210876
100.301080646872
100.301061586022
100.301058701671
100.301058071458
100.301027932875
100.301020317479
100.300965009486
100.300856450851
100.300802928827
100.300923391325
100.301026497796
100.30103060212
100.301073855676
100.301037811136
100.301016228385
100.301009578596
100.300995927823
100.300973200367
100.300967281492
100.300910670757
100.300799464351
100.30059480042
100.300289230636
100.300607253019
100.300384656074
100.300017184923
100.299390073493
100.298549846168
100.297586845936
100.296093940418
100.297423911045
100.297727603314
100.298289755469
100.298844231701
100.299261677709
100.299623430014
100.300288604946
100.300289362517
100.300043725141
100.299535727962
100.299072509094
100.298674628137
100.298551904317
100.299272926472
100.299676109951
100.300230557929
100.300442218353
100.300852536682
100.300986300064
100.301080554449
100.301046316039
100.301015823032
100.301005688403
100.301037693029
100.301032653475
100.301012804557
100.301005426777
100.300996326585
100.300980213597
100.300953856857
100.300950560587
100.300886168409
100.300787380026
100.300565236425
100.300262517447
100.29981986149
100.299219134839
100.299272691458
100.298400978009
100.297366305895
100.295697633912
100.293743930842
100.291041797768
100.291961327511
100.293232048823
100.294213420011
100.295138135806
100.296545891693
100.296710566886
100.296051841169
100.295487066006
100.294341109117
100.293937932371
100.295724705381
100.297086031078
100.297448369002
100.298752337358
100.300257421895
100.30091835464
100.300896684142
100.301061513592
100.30107921888
100.301085878892
100.301034636751
100.301024766801
100.301020303366
100.301000936159
100.300989997384
100.30097261877
100.300944685296
100.300943896531
100.300879801529
100.300788334198
100.300570080924
100.300276844201
100.299791662388
100.299186538828
100.298282876018
100.297256967398
100.295325012584
100.295465685582
100.29339336441
100.290387434806
100.286534470118
100.281269930671
100.261712840855
100.271578209276
100.282241357528
100.28335179041
100.287657481887
100.288832148945
100.284024994853
100.287602092615
100.289871654523
100.291633490815
100.293228627778
100.294186796532
100.295425118883
100.295568032599
100.294872701099
100.293373486816
100.291989808886
100.290598479488
100.290335155241
100.292781364347
100.2947932222
100.295660909377
100.297747785836
100.298840929047
100.30061487499
100.301022934921
100.300955679501
100.301056589938
100.301110562426
100.301041050022
100.301012585539
100.301004123888
100.301000994056
100.30099963198
100.301082895285
100.301032475031
100.301032080796
100.301020035174
100.301000370248
100.300989437089
100.300972428418
100.300944123821
100.300943591289
100.300877888116
100.300793908242
100.300558681669
100.300284212086
100.299770305779
100.299177722309
100.298275263053
100.297241670036
100.295307022119
100.29311196514
100.290047479157
100.290003691853
100.285679734569
100.280164739995
100.255900314135
100.227319207326
100.166141073813
100.183580174219
100.189245722135
100.193091835289
100.192794482557
100.199321349177
100.196506765198
100.192899357996
100.198318046139
100.202776397416
100.201128929214
100.197145514286
100.206301839765
100.201381724449
100.201690734373
100.20928235729
100.202646835732
100.201435727167
100.209528409898
100.205143243957
100.198646327539
100.207729139507
100.204235203036
100.19715394666
100.205775609781
100.202634680975
100.194981244284
100.206191174699
100.207503155667
100.204917407228
100.20404053727
100.201934494041
100.200376441579
100.199924702235
100.200029150278
100.199997217589
100.20035189617
100.200617095924
100.200616555524
100.200271998413
100.200488106516
100.200653472416
100.200705390711
100.200519577413
100.200446622147
100.20081341799
100.200496486808
100.200331124694
100.200278973
100.2004935123
100.200628597088
100.199921837751
100.199939290088
100.200589717299
100.200470306144
100.200252171605
100.200346385991
100.200506367012
100.20082808497
100.2004623233
100.200522414161
100.200701635975
100.200654442709
100.20049260725
100.200276488555
100.200621754955
100.200627116512
100.20036103838
100.200000907518
100.200023674372
100.199928730767
100.200382664178
100.201356668936
100.20242965394
100.202449990818
100.201343279804
100.201807724828
100.202826126692
100.202836544556
100.201840162477
100.201944701032
100.201731633141
100.201254281191
100.201944181798
100.202182586597
100.200743607524
100.201248231474
100.200951057072
100.201119517161
100.201538986543
100.200651778121
100.201316384273
100.20179947913
100.201893870797
100.202364660063
100.200875589768
100.201832960039
100.201140203582
100.201026727455
100.200628981289
100.201139665159
100.202859931586
100.201654191731
100.200419037513
100.201607801645
100.201586504753
100.200399130365
100.201129891417
100.200613252982
100.201016740962
100.201145301766
100.201815894762
100.200851991545
100.202398495539
100.201898819328
100.20179526795
100.201315327798
100.200645481016
100.201535085913
100.201116126236
100.200944193525
100.201239924028
100.200733759883
100.202166247722
100.201937376177
100.201251242205
100.201720666075
100.203840785273
100.203192287001
100.204186856806
100.201665786766
100.200119074069
100.20414734578
100.203288427018
100.202697640721
100.203388491884
100.201801659159
100.202819877714
100.20034981647
100.206191460813
100.205507766647
100.205799743574
100.202046235581
100.201199574019
100.201188564856
100.202031576439
100.20403462378
100.203859548378
100.203206988473
100.203402019428
100.202718405321
100.203302667597
100.203142847045
100.201067066775
100.202085431258
100.203295842373
100.204299844523
100.202338529863
100.202683105822
100.203486812955
100.204662376002
100.20209778624
100.201497103706
100.201970268184
100.202058671966
100.20205365761
100.201583576162
100.201802715949
100.202615235549
100.202610203986
100.201798993908
100.201556094472
100.202038294821
100.201961240407
100.202083678292
100.204658965061
100.203488786376
100.202675337736
100.202319323948
100.204291728041
100.203291512691
100.20207723415
100.201060462503
100.203133891421
100.202246388126
100.200986279808
100.202017775421
100.201504400239
100.202647030189
100.201016040148
100.200484433918
100.202735745021
100.203187130988
100.203634867765
100.202919860882
100.204202817888
100.202258113406
100.201648532836
100.203915731154
100.205107368841
100.205480156032
100.20397532945
100.204943982054
100.201346286533
100.202431176127
100.204477583135
100.203652144869
100.205439963991
100.204688033418
100.205568598426
100.204497308811
100.200791195288
100.201986114901
100.201308640231
100.19963022489
100.193188073757
100.193470164069
100.187408978852
100.191446418639
100.178375699442
100.172713906585
100.176883312362
100.18237198307
100.163106138108
100.237119071987
100.259182989202
100.22324657946
100.251239103882
100.270453442985
100.278355754894
100.284070807061
100.283937350486
100.279374847119
100.272668847164
100.280286555413
100.284178876506
100.28686827794
100.289081272323
100.287084973874
100.290166967902
100.291682089904
100.293090093808
100.294129186776
100.294045385857
100.292572585918
100.291254249981
100.290922000301
100.292392878432
100.293728163618
100.294386473323
100.295737431439
100.293362993131
100.294833661761
100.293002146608
100.292401962356
100.292349312295
100.292405049566
100.292930173318
100.291563330961
100.291402099516
100.291611206377
100.292661847152
100.290642307372
100.294168581805
100.293747248067
100.294525574221
100.295540822089
100.297395422756
100.296655704806
100.295616160834
100.294710939242
100.29369174248
100.292695183128
100.29189795291
100.290834765746
100.293181339624
100.292235037002
100.291932759033
100.292511229377
100.291873352111
100.292986321695
100.292000640183
100.299080471529
100.299077898731
100.298852053018
100.298106574025
100.296964332885
100.297231438531
100.299745590868
100.301050646555
100.299618696413
100.298810211945
100.29936582828
100.294906862947
100.294501695871
100.295614853508
100.297600879393
100.296622807272
100.299457819984
100.297293070416
100.297750995475
100.298218847051
100.297472247263
100.296753380743
100.295866396944
100.295692964432
100.29614024775
100.295264824672
100.294187714822
100.293156695069
100.292125382153
100.292555519564
100.291549073199
100.290509972634
100.291298038991
100.289986458323
100.290389663527
100.29077736958
100.292078073172
100.294326650495
100.294382303412
100.292749193273
100.294047297035
100.293253511169
100.298966317962
100.29376136645
100.294160352761
100.295141464721
100.296663482068
100.299020473539
100.296046154457
100.298198597745
100.299351904094
100.300958919346
100.301125988017
100.301970171983
100.300946986747
100.300499983778
100.300408186887
100.301765289963
100.301336224642
100.300290576598
100.300364712656
100.297987495284
100.299679835072
100.29838201075
100.297421656067
100.298861624911
100.298126993993
100.298586504216
100.298070801387
100.298238516736
100.297852686508
100.299941715274
100.300598652425
100.301493060764
100.302188126337
100.302270651747
100.302340462405
100.302094672739
100.302147706266
100.301621280097
100.301316876453
100.300791247938
100.300107197996
100.29925207779
100.298013061781
100.296681722622
100.295424297238
100.294558955697
100.295803604609
100.2990105078
100.300897318317
100.301094210415
100.301091432822
100.301092465951
100.301083116772
100.301085392562
100.301033520582
100.301023408169
100.301003864798
100.300993124604
100.300976359512
100.300949264649
100.300946030331
100.300878489089
100.300791133665
100.300552861204
100.300275580425
100.299800684681
100.299199794208
100.298299772247
100.297259245486
100.295420576286
100.293354472106
100.290415599631
100.286625638323
100.281501014924
100.26208220192
100.256220607737
100.227681080143
100.165793144779
100.183455895555
100.189131478582
100.1930082732
100.192761810469
100.199150393507
100.201112776679
100.197127475067
100.206361093922
100.201348130219
100.201682853824
100.209236536565
100.202622148507
100.201409622214
100.209487668377
100.205125015158
100.19863193631
100.207685761694
100.204225064557
100.19712298801
100.20575672283
100.202631260765
100.194965262847
100.206196021746
100.205490908239
100.205847761719
100.205952620852
100.204949899121
100.207557473666
100.201688397685
100.204196656419
100.202077019604
100.204169843149
100.200138622368
100.201007867545
100.202262667327
100.203439988208
100.204152201757
100.203120785749
100.202415139359
100.200918999002
100.201423120403
100.203928134189