/*--------------------------------*- C++ -*----------------------------------*\
| =========                 |                                                 |
| \\      /  F ield         | OpenFOAM: The Open Source CFD Toolbox           |
|  \\    /   O peration     | Version:  v1612+                                |
|   \\  /    A nd           | Web:      www.OpenFOAM.com                      |
|    \\/     M anipulation  |                                                 |
\*---------------------------------------------------------------------------*/
FoamFile
{
    version     2.0;
    format      ascii;
    class       volScalarField;
    location    "1.1";
    object      p;
}
// * * * * * * * * * * * * * * * * * * * * * * * * * * * * * * * * * * * * * //

dimensions      [0 2 -2 0 0 0 0];

internalField   nonuniform List<scalar> 
81489
(
100.002061475345
100.006885539908
100.000096489361
100.004365050574
100.009680224353
100.006354145557
100.005976460843
100.006028503357
100.006198594134
100.005814517349
100.006419674823
100.009505930727
100.013350287763
100.012184841747
100.010387029987
100.01139163633
100.008539225724
100.006155930913
100.006174141689
100.008553151692
100.011366020774
100.010343740209
100.012151441676
100.013305713435
100.009484928584
100.00639009305
100.005784640848
100.006174598854
100.006002256947
100.005946217596
100.006321474056
100.009660862223
100.013471900203
100.012319186725
100.010380629804
100.011392478383
100.008580717488
100.006220662306
100.00620371714
100.008567197906
100.011415551054
100.010427006432
100.012357660744
100.013510074884
100.006668343941
100.00595666962
100.001679714022
100.00219102082
100.00354798503
100.003967206375
100.003995066292
100.003571040662
100.002172497204
100.00164531487
100.005927500264
100.006640976698
100.004363635597
100.003296957448
100.00399737422
100.004235306694
100.004188770922
100.00386254933
100.003523547116
100.004498789905
100.006631188836
100.005904542989
100.001620348318
100.002130737457
100.003527044967
100.003951775705
100.003921830044
100.003496614414
100.002153081186
100.001657637794
100.005935230373
100.006656422255
100.004500529642
100.003536135292
100.003877930325
100.004205292082
100.004252397681
100.004011819811
100.003311363537
100.000073140856
100.002205250763
100.002113828363
99.9908093497787
99.9932046263049
99.9933388570332
100.003648014208
99.9982692189884
99.9963545193709
99.9987752284131
100.000931746917
100.000962053541
99.9987784527249
99.9963059315839
99.9982293249262
100.003619029653
100.003628516747
100.000101736423
100.000063233155
100.002200851073
100.001045596738
100.001021956115
100.002250050853
100.000146103868
99.9999875251873
100.00357990722
100.003627936502
99.9982156326048
99.9962582627079
99.9987292509777
100.000915871668
100.000887717506
99.9987167843325
99.9963018745805
99.9982535003812
100.003656296051
100.00361322391
99.9999847124964
100.000157654009
100.002255717272
100.001038197539
100.001062684602
99.9981245386938
99.9980760522046
99.9908526387824
99.9610519686812
99.9609722407746
99.955374642479
99.9563480814208
99.9615141800786
99.9918959898514
99.9989256034328
99.9982604069955
99.998256448756
99.9988521119791
100.001483889938
99.9933388674112
99.9931685721605
100.006898645998
100.002108507486
99.9980992415196
99.9980531856167
100.001831360227
100.006478993837
99.9931585786058
99.9933413046681
99.9918383337011
99.9918756577171
99.9933447393021
99.9931950225301
99.9555083759785
99.9552853883923
99.9567925973487
99.9567806912113
99.9552672100125
99.9557953807246
99.9566222280643
99.9566441339721
99.9615639329599
99.9918606036378
99.9859594722932
99.969250494951
99.9628198452997
99.9626598463116
99.9602048662341
99.9612610166441
99.9558159271334
99.9564495205209
99.955431353181
99.9610011325604
99.9907837143033
99.9908269280472
99.961081463086
99.955562698396
99.9565258427826
99.9616035996682
99.9615542937439
99.9564268766371
99.9558116851652
99.9612658737768
99.9611345733895
99.9604094679854
99.9604189421912
99.961162355455
99.9612810966767
99.9602090800482
99.9615279559336
99.9615263231401
99.9621549230052
99.9621184475811
99.9611607110347
99.9552906722812
99.956810691245
99.9568246953414
99.9553119745679
99.9558320862121
99.956676274119
99.9566536877133
99.9602171516187
99.9615266326856
99.9621563642173
99.9621031573468
99.9615931119991
99.9615966422227
99.9621201484653
99.9621615545563
99.9600744014766
99.9598935307832
99.9598988392579
99.9600856614372
99.9600336880284
99.9599035372027
99.9616018561674
99.9604302483463
99.9604205697072
99.9611341263368
99.9612442906637
99.9602133027618
99.9615235734409
99.9598954599938
99.959893177713
99.9600797516082
99.9600230610476
99.9598949864802
99.9598924402086
99.9600246516778
99.957652240124
99.9576869362217
99.9576182266897
99.9576260831879
99.9577051828122
99.9576751867408
99.9576413148146
99.9576409870148
99.9599045939013
99.9615973203044
99.9621036284965
99.9621420068183
99.9600775086469
99.9576949330467
99.9576199282318
99.9576154158849
99.9576863605304
99.9576576576618
99.9576197451994
99.9576156110535
99.9556718456108
99.9557050145088
99.9557231612913
99.9556711141459
99.9556832482114
99.955753945808
99.9557553327504
99.9557209828589
99.9557161394244
99.9557349197954
99.9576718500911
99.9600318125958
99.960595892122
99.957966686019
99.9560008981422
99.9557345556603
99.9556665776136
99.9556617295579
99.9557186729534
99.9557105211293
99.9556733028548
99.9538809516669
99.9538843093809
99.9539128127095
99.9539208572465
99.9538987204095
99.953920433157
99.9539775532859
99.9539951917109
99.9539737249769
99.9539665664485
99.9539597095681
99.953945509117
99.9538835469634
99.9538774649219
99.9539089196785
99.95390849492
99.9519398410279
99.9519193212919
99.9519263017113
99.9519481581284
99.9519670179605
99.951971350055
99.9520101224407
99.9520672753518
99.9520952106631
99.9520909508751
99.9520802683481
99.9520507361179
99.9520119257554
99.9519348921569
99.9519337089621
99.9519348729057
99.9495749697079
99.9495541522031
99.9494984570722
99.9495081150519
99.949553503244
99.9495850253231
99.9495887507247
99.9496665664496
99.9497927137637
99.9498234778687
99.9498061033126
99.9497930984763
99.9497448963071
99.9496529946436
99.9495160398221
99.9495310746387
99.946181880711
99.9462620058609
99.9462231089581
99.946139040698
99.9461272967208
99.9461871324962
99.9462516047566
99.9462632908995
99.946430681668
99.9466213770548
99.9466831900699
99.9466421306326
99.9466123965867
99.946548311467
99.9463338664991
99.9461521066211
99.9410150787894
99.9410097654337
99.9408095654079
99.9406751741019
99.9408357375716
99.9408877301415
99.9407713502615
99.9408726889323
99.9411774438534
99.9414556755872
99.9414242047597
99.9416073150463
99.9418476857854
99.9417645896005
99.9414041830908
99.9409254256239
99.9263407054051
99.9274029664321
99.9270101883724
99.9254995327125
99.9254471817713
99.9274323799396
99.9275656980725
99.925771185321
99.9258880360378
99.9274207095341
99.9277688232675
99.9265980684809
99.9270116761236
99.9286603249307
99.9284710344145
99.9268744861021
99.9410168434102
99.940590068804
99.9366969300594
99.9358343348756
99.9389432130944
99.9389912296168
99.9358386350491
99.9361019645116
99.9394442157147
99.9397305665859
99.9366625377967
99.9371624450269
99.9410604389017
99.9414121256877
99.9383659438025
99.9382196075928
99.9985355660471
100.052177712332
100.007635663363
100.005550662982
100.047422237095
99.9937186278746
99.9920185089885
100.04550029288
100.002971733088
100.004525655269
100.048468130346
100.08135315173
100.080998144633
100.048376831583
99.9949473187
99.9947987075177
100.119129943627
100.219066331171
100.176845748121
100.17676377707
100.148844569539
100.1423630685
100.140468970175
100.004133020815
100.047049582241
100.077905535746
99.9937018958983
99.9943285294168
100.048547314799
100.006208721928
100.008135180894
100.052596801436
99.9987985147814
100.086254155047
100.086124606916
100.182158424296
100.15297576481
100.1450295612
100.142108897563
100.145432283562
100.169850477959
100.16950697895
100.143997213767
100.139710688035
100.14174715126
100.148622077473
100.240422627132
100.281877889534
100.260553106132
100.26000937972
100.280742528848
100.26891228333
100.240419732205
100.336071479487
100.371732819321
100.343989697924
100.333764656272
100.333195512631
100.33972343538
100.275703630471
100.23729219191
100.268636136536
100.334238692809
100.368225723636
100.389294985166
100.396474920721
100.39871632071
100.402495796494
100.403512667852
100.402484135883
100.40094056999
100.399578956993
100.398679448899
100.398074857886
100.397768231497
100.397727012296
100.397955810743
100.398447081809
100.399170156304
100.400145266233
100.401552989532
100.40389209128
100.408386420382
100.416531884201
100.433062505553
100.458546950795
100.499461339744
100.496071428441
100.431199655283
100.373664672789
100.315607941647
100.282910498566
100.303956214233
100.303341255044
100.301004512564
100.301273261208
100.302343226029
100.303423788174
100.304656973228
100.306257675057
100.308181243769
100.310219075995
100.312097380155
100.313540905399
100.314301821215
100.313063395751
100.311545566537
100.3098368294
100.308079368701
100.30633434693
100.304605620509
100.302935650135
100.301412820147
100.3001367029
100.299134081066
100.298376506851
100.297837099928
100.29745378145
100.297184687044
100.296994957884
100.296859786843
100.296784810572
100.296792165115
100.296950738961
100.297349617127
100.298105820586
100.299504653674
100.301110344478
100.301842937505
100.302057902063
100.302069103123
100.302112479207
100.302131483047
100.302235163288
100.302207161726
100.302237027562
100.302217256629
100.302161725834
100.301988616124
100.301760125129
100.301757766949
100.301782881933
100.302116717969
100.302078792005
100.302016815845
100.302169993935
100.302218345408
100.302223846382
100.302205060302
100.302226668787
100.302135508645
100.3021065993
100.302076677999
100.302056725713
100.301843607498
100.30152997698
100.301966253584
100.302065536429
100.302091596277
100.30210784233
100.302142206527
100.302220059401
100.302202588636
100.302209632381
100.302204186482
100.302148140142
100.302195504414
100.302050361987
100.302163282228
100.302352953922
100.302330264606
100.302281232625
100.302207286757
100.302207110266
100.30220933635
100.302218951347
100.30215067294
100.302112943422
100.302095505733
100.302071742831
100.301885796573
100.301804361825
100.302020836426
100.302104592251
100.302124629027
100.302132304417
100.302162788822
100.302219820553
100.302242418084
100.302234010527
100.302254612186
100.30221406337
100.302372643683
100.302490403054
100.302531556528
100.302282604604
100.30206663027
100.302338914212
100.302615156797
100.302538532172
100.302690565467
100.302648031589
100.302481476686
100.302262029513
100.30229070674
100.302250642811
100.302177356484
100.302137716988
100.302137605255
100.302132160385
100.302038477528
100.302102718286
100.301777315545
100.301411985625
100.301939003896
100.302086149824
100.302084169634
100.302154510524
100.302206742146
100.302172768895
100.302245623274
100.302300985918
100.302299644927
100.302312990399
100.302330119141
100.302593420532
100.302773325053
100.302813669116
100.302719996804
100.302846250434
100.303019368843
100.302936191454
100.302871346809
100.302687914715
100.302420745821
100.302362140119
100.302348387583
100.302289426012
100.30224241919
100.302201150647
100.302210803321
100.302236790488
100.302128594373
100.302164506519
100.301901216219
100.301829193982
100.302095535343
100.302210964685
100.302192393435
100.302287618804
100.302262701698
100.302318903818
100.302345545161
100.302412602683
100.302478763283
100.302561973925
100.302813682476
100.303046533564
100.302981198621
100.30305689738
100.302872076934
100.302586922004
100.302606097794
100.302920680775
100.303161682938
100.303237696383
100.303121687484
100.302928602821
100.303199845062
100.303273657575
100.303390615955
100.303417628659
100.30344897335
100.303349012509
100.303230807502
100.302992256434
100.302652546569
100.302595175525
100.302508132685
100.302436167443
100.302387412922
100.302404784975
100.302341004764
100.30226546285
100.302277894645
100.302040129196
100.302156952054
100.302260802643
100.302347174361
100.302350585155
100.302392090322
100.302500488054
100.302466347657
100.302550528738
100.302551166386
100.302563087003
100.302628909079
100.302722323252
100.303060818841
100.303302877361
100.303389850369
100.30336523069
100.303307843909
100.303126673179
100.303143213982
100.302879406559
100.302740977534
100.302648592288
100.302613186271
100.302563189481
100.302498048777
100.302523982267
100.302507273308
100.302495217402
100.302418502145
100.302198367507
100.302430642785
100.302429411681
100.302459219939
100.302566062671
100.302557826888
100.302570218986
100.302658073744
100.302737728214
100.302764339965
100.302869460992
100.303181564087
100.303353920409
100.303360943989
100.303264091864
100.303042263988
100.303273321217
100.303279032323
100.303426291319
100.303428330012
100.303338012565
100.303204081783
100.302968429894
100.302873815942
100.302749323323
100.302792047005
100.302747167632
100.302672460812
100.302684043982
100.302631096179
100.302551343893
100.302597946169
100.302618159268
100.302264137869
100.302483043615
100.302534351813
100.302440121618
100.302660094104
100.302621158688
100.302742047896
100.302700101818
100.302781762604
100.302839223833
100.302897240203
100.303020551209
100.303050437963
100.303249350437
100.303413578406
100.303363071451
100.303397578256
100.303255066327
100.303280209186
100.303423578253
100.303505954249
100.303436695813
100.303580620033
100.303648126165
100.303638327538
100.303521576544
100.303382343707
100.30315365982
100.303058599525
100.3029825665
100.302944695125
100.30287393948
100.302818720154
100.302907634811
100.302719105813
100.30275518866
100.302663557106
100.302689608348
100.30247605101
100.301911728155
100.301092281019
100.302066402653
100.301507167215
100.300817275713
100.30003627096
100.29924880554
100.300774806234
100.300140006892
100.298587364652
100.297612910009
100.29706186662
100.296796145652
100.29673148327
100.296769332126
100.296886646791
100.29706569918
100.297320865656
100.297678764926
100.298184462974
100.298896194595
100.299856459703
100.301100570177
100.3025935982
100.304234032253
100.305904835993
100.307565557553
100.309227722743
100.310842753416
100.312269924159
100.313434965909
100.314257351239
100.315171540207
100.315627690534
100.314744367758
100.313481669332
100.311926985385
100.310173814877
100.308365262521
100.306575561309
100.304821096317
100.303142601765
100.301613151805
100.300321469456
100.299291339394
100.298501860668
100.297936069483
100.297533441505
100.297251963868
100.297054840052
100.296912893294
100.296820985064
100.296804301971
100.296906902589
100.297225097584
100.2978399712
100.29907039867
100.300581606305
100.301724662437
100.302110921424
100.302095555145
100.302171558714
100.302189313853
100.302347082863
100.302258398685
100.302401408795
100.302391654785
100.302374835659
100.302194758264
100.301924689468
100.301773767104
100.301333777696
100.300760503802
100.299941990078
100.30004367488
100.300248536499
100.300526274368
100.300983264462
100.301526566522
100.301400983003
100.301081923547
100.300892808681
100.300812634486
100.301354435363
100.301419473683
100.301564644319
100.301860690061
100.302046117752
100.302279997232
100.302017572991
100.301729811677
100.301305166507
100.300747945146
100.299780923469
100.300278071364
100.301041805366
100.301076066607
100.301602225623
100.301780566731
100.301282720913
100.301664423947
100.301923025774
100.302406474581
100.302346429775
100.302185815411
100.30256567674
100.302700784045
100.302884707024
100.302547093374
100.302190683031
100.301751969596
100.300967053708
100.301394637451
100.301905523872
100.302019634582
100.302556557874
100.302827634537
100.302281718417
100.302465010879
100.302815667769
100.302935765807
100.303250290962
100.303131410539
100.302830329715
100.302956171527
100.302910599182
100.302691665321
100.30241998654
100.302411715374
100.302384320663
100.302341656999
100.302230653164
100.302158608212
100.302074418854
100.302055520521
100.302061220998
100.302068199525
100.30201084692
100.30201275087
100.302013137691
100.302016511336
100.302018781508
100.302054436752
100.30204248826
100.302127488155
100.302098185396
100.302258032942
100.302213535638
100.30228756259
100.302262351526
100.30221916616
100.302018392547
100.301910378194
100.302095283892
100.30222926496
100.302252886845
100.302350032001
100.302444439388
100.302483033333
100.302547810786
100.302551928819
100.302370863279
100.302140297914
100.301625418377
100.301096139297
100.30026750157
100.300035352525
100.298945886489
100.297812313709
100.295885276021
100.295885992711
100.297627947395
100.297776796703
100.29890922303
100.298949582907
100.297777464389
100.298328106982
100.298832434525
100.299398511897
100.29800615779
100.296928584058
100.295242636921
100.296667825901
100.297232256095
100.297946866914
100.298537087676
100.299043620896
100.29990743261
100.300072729044
100.299730479595
100.298976163421
100.298269625115
100.298005842683
100.29877954824
100.298279236125
100.299450997945
100.301583901051
100.301889113581
100.301846611328
100.301869276043
100.301786178295
100.301729041439
100.301643258601
100.301743931619
100.301575012961
100.301541547984
100.301689326177
100.302141216362
100.30214644147
100.302207046059
100.302288569724
100.302287083334
100.302448917326
100.302479540425
100.3025067182
100.302570989254
100.302582454564
100.302366817848
100.302187369346
100.301624244846
100.301112117967
100.300315521607
100.298992610418
100.297967440903
100.295941328846
100.295912694346
100.293341204762
100.290285318586
100.290599530177
100.291093097312
100.292156854578
100.293278331502
100.294267592791
100.292002882082
100.290002985741
100.291717763056
100.293243219928
100.294143106216
100.295405456249
100.295574371236
100.294794572688
100.293404811284
100.292772887284
100.294261976094
100.295699096972
100.296220467022
100.295913898178
100.297465262394
100.29890275342
100.301378716132
100.30178312898
100.301669539418
100.301017450625
100.301540563026
100.301328176694
100.300418302465
100.301230196673
100.301207104556
100.301543342381
100.301691258487
100.302165727252
100.302176269024
100.302231590723
100.302313468211
100.302304421865
100.302380661557
100.302294352811
100.302462014819
100.302446014103
100.302449191117
100.302237201448
100.302034282906
100.301501098646
100.300954050569
100.300147592516
100.298927400245
100.29788902541
100.295934479963
100.293496741887
100.29055333654
100.290294581049
100.286430824742
100.282246045245
100.259775790548
100.259358545734
100.262904669738
100.280273495763
100.282904315438
100.282156304372
100.286400971937
100.286935961416
100.287694591042
100.28157745881
100.285208077736
100.287774436816
100.284144893937
100.279588355015
100.271766933052
100.279117054564
100.28432384521
100.284232665661
100.286977151613
100.289094276553
100.287078073498
100.29009899746
100.29157462099
100.292999885489
100.294214416063
100.294158316951
100.292569328167
100.291265009973
100.290819288184
100.292288580893
100.293538826642
100.293990258454
100.294669534578
100.292733424911
100.293818484691
100.293728915013
100.293775564849
100.293743152421
100.293988108253
100.293592844474
100.291700144868
100.292959802237
100.291613770021
100.295223884703
100.292962060031
100.292995703006
100.293231617718
100.293161775573
100.292712397822
100.293544307843
100.293379760057
100.293036872521
100.291896380623
100.290980179965
100.292809133572
100.291045820796
100.29106449892
100.291634997793
100.292403841003
100.291039977193
100.290515083269
100.290826948004
100.298793434636
100.298052447
100.297650747785
100.297966537838
100.299808979956
100.301551490338
100.300077772145
100.299594569851
100.299983797108
100.296518125113
100.297887318408
100.296573582538
100.294401213894
100.293868207874
100.295737187337
100.297305682706
100.296329873625
100.296226992644
100.295027736807
100.294186266189
100.29469893511
100.294688974443
100.29822074438
100.300009105481
100.301420302383
100.301938361809
100.302067879894
100.30208131242
100.30187991802
100.301836879702
100.301666167688
100.301563401193
100.301218413546
100.300705624512
100.300191095092
100.300112732713
100.300492791381
100.301720020979
100.302165014954
100.302162114014
100.30221769642
100.302246256313
100.302402270194
100.302325770096
100.302234904226
100.302339642588
100.302294283755
100.302253649781
100.302047253898
100.301794986806
100.301334334453
100.300764353899
100.299936734422
100.298953787625
100.297797167429
100.295975012646
100.293838468084
100.29110915516
100.287806557775
100.281645663169
100.280280025034
100.263726632779
100.245188910642
100.167837183774
100.18337019702
100.2018588611
100.205116052551
100.201397970975
100.196443229985
100.207047793363
100.203495408391
100.198055890927
100.209267543312
100.205631885365
100.198692743002
100.20853962594
100.205180470074
100.198023361466
100.207373855676
100.204046975866
100.196956190185
100.206023313512
100.202753856203
100.195884930738
100.203959028626
100.201768403942
100.202306761341
100.201737048372
100.200497037252
100.200527283073
100.200758485721
100.200283213226
100.20027845114
100.200619784141
100.200136705254
100.199825400573
100.200363580757
100.200289778314
100.200008041693
100.200072271797
100.200268712949
100.200458902866
100.200915843232
100.200588505923
100.2002697341
100.199993283639
100.200556937583
100.20040792751
100.200084810158
100.199422605975
100.199356973715
100.199977462474
100.200357239924
100.200518644202
100.199976187808
100.200257266767
100.20057822457
100.200909846717
100.200438167742
100.200253777981
100.200076899104
100.200020639445
100.200290760247
100.200363604201
100.199819623438
100.200129372454
100.200616533857
100.200267427511
100.200296069102
100.200722130778
100.200507354826
100.200503949291
100.201766339277
100.202365540208
100.201832205877
100.20403325819
100.203202918155
100.204302782264
100.202616468207
100.201818740918
100.203450924978
100.203149932802
100.201691583304
100.20129923762
100.20158379256
100.199141344767
100.199944875257
100.200388933967
100.200478898842
100.200549320559
100.200291057533
100.199839539977
100.200320092217
100.199543597597
100.199556605024
100.200590351765
100.199629838362
100.201353626348
100.200891357223
100.200797479619
100.200504841958
100.200597671809
100.200455217815
100.200427532095
100.200478104165
100.200934555156
100.200279361029
100.200176578765
100.2001459189
100.200302012321
100.200828275687
100.200379281355
100.200391397727
100.200443308311
100.200557457861
100.200150109817
100.200308451253
100.200780938092
100.2015092783
100.200080209611
100.200105205975
100.199924845538
100.199937856713
100.20013755048
100.20009450124
100.201538716405
100.200791026723
100.200323234389
100.200167631097
100.20056446948
100.200733272932
100.200923474772
100.200909315899
100.200739085148
100.200601812691
100.200646967287
100.20065503837
100.200599485374
100.200718991423
100.200384273162
100.200400799719
100.200451966738
100.20097537653
100.200139439288
100.20036827047
100.201843836127
100.201340691841
100.201534471861
100.201147123007
100.202291933058
100.201646536444
100.200860977302
100.201229934666
100.201496846908
100.201518639069
100.201232972283
100.200860751726
100.201645934191
100.202348707848
100.201150170969
100.201529769481
100.201332992793
100.201840535994
100.200879381486
100.202617162837
100.201922867013
100.201822753589
100.200775843314
100.200694564851
100.200031177684
100.201129048818
100.199761614518
100.200854163734
100.201450738149
100.200426818477
100.201671957054
100.201215991662
100.203131175791
100.204118565511
100.201048288174
100.195983970007
100.202864129304
100.206148707481
100.19709616603
100.204220737099
100.207563174729
100.198250165905
100.205427234676
100.208805505559
100.19899969969
100.205956739359
100.209660637988
100.198590376467
100.204023972493
100.207420009671
100.197084241845
100.202247730966
100.202488898137
100.199538771322
100.196774703625
100.196586168322
100.201836493294
100.199425905016
100.197507194776
100.193317393148
100.198118564387
100.198207764469
100.193403248196
100.185699876796
100.185286448977
100.163754374
100.237033862072
100.236448374069
100.164628462876
100.168164113343
100.183639035115
100.201920079699
100.205147973202
100.193764181992
100.188687090366
100.193887775634
100.192292540211
100.197970625694
100.206034845939
100.201969234983
100.202193409197
100.20632743629
100.203088984009
100.202452009828
100.205063228316
100.202292051695
100.201746511246
100.203440079618
100.201171110658
100.200881224598
100.201847841635
100.19997700214
100.203813867638
100.202864470589
100.201118890055
100.201678831412
100.203023439277
100.201676872806
100.20126431703
100.200368432351
100.202557830879
100.202626015372
100.200218353594
100.204172308309
100.204645554432
100.201720477549
100.205043451172
100.206243135985
100.202835000944
100.205942001986
100.2068573089
100.203202527314
100.201965149114
100.188660665353
100.177915470441
100.178565668885
100.18753905747
100.184842801765
100.183597829155
100.190508915674
100.178254535986
100.182224539306
100.175969780452
100.175864847886
100.183042260374
100.228976813708
100.254317652344
100.230781656189
100.159755821667
100.160952238964
100.185658610144
100.15263389551
100.137834423123
100.206131896937
100.247562980992
100.27037786235
100.279450153451
100.285302139717
100.287523846925
100.28734218344
100.282666349352
100.274983697926
100.261511953406
100.268381901332
100.276684840949
100.283996921596
100.287596725582
100.290767852293
100.293476494882
100.293659316472
100.296683164362
100.298494631008
100.297675668559
100.297094275051
100.297006757141
100.29740174438
100.300474333604
100.300849295436
100.301756570886
100.302144354539
100.302085131093
100.302221545144
100.302113381613
100.302137305375
100.302276402122
100.30221308079
100.302254558524
100.302209176615
100.302140589649
100.301956308842
100.301714084936
100.30130285973
100.30078170969
100.29999691081
100.299067994142
100.297945653984
100.296235575535
100.294493889143
100.292165785531
100.289452380308
100.285286851683
100.280958337097
100.274382180865
100.254510236399
100.228690341283
100.183599312068
100.176774582344
100.176388644205
100.182432192017
100.193776733415
100.188312514222
100.19292181031
100.192152405004
100.198154255269
100.205936146579
100.201947594165
100.202237929096
100.206273322513
100.203065453196
100.20243460591
100.205023948372
100.202257003606
100.201723667701
100.203434510863
100.201146207215
100.200865649599
100.201833897259
100.199946865543
100.201795390678
100.204101123523
100.203165499711
100.201700369519
100.201293506435
100.20158931766
100.201845943872
100.203499635806
100.203204333531
100.204304484337
100.202616061538
100.202239984888
100.202941500772
100.201328872362
100.200805214707
100.202151101491
100.203832588111
100.202858732698
100.201122961556
100.201689331155
100.200424866178
100.201458139027
100.200872415989
100.199758282472
100.201141222676
100.200033844531
100.200694040442
100.200779382117
100.201833256592
100.201944977991
100.202621355103
100.200898008813
100.200218999327
100.200866655384
100.200214534644
100.200789643926
100.200439004237
100.200856179564
100.201482146059
100.201033922396
100.200469908419
100.200563645392
100.202971982792
100.20506232025
100.20269903183
100.201841280228
100.201977009908
100.20239200123
100.202122484101
100.202648966614
100.202614043793
100.202135148293
100.202395452791
100.201969097745
100.202681156571
100.20507706034
100.202991419223
100.202979546501
100.203851247524
100.202896317655
100.201988879244
100.201918913884
100.202309039917
100.201365749798
100.200554894411
100.201955348975
100.20132972596
100.200101604238
100.202571438381
100.202869109031
100.202088705126
100.201961547326
100.202728404927
100.204247665766
100.203516563442
100.202581144428
100.203475802736
100.206142320876
100.205405729242
100.202340970799
100.202914721919
100.207792925757
100.20808365563
100.201281622334
100.190556557475
100.183912582507
100.177881486048
100.181394090087
100.182130480017
100.186195608368
100.187746894363
100.183583364896
100.173893418841
100.174089129297
100.174155916016
100.170557562938
100.16040804199
100.162183825317
100.178560620551
100.175420081413
100.177500554883
100.195952268138
100.198525274271
100.210741600854
100.229103035791
100.217736609738
100.223013037243
100.242691641416
100.261668299139
100.24407702209
100.264634842556
100.276000347619
100.280915825039
100.27450035088
100.273649912964
100.281249114745
100.286946248443
100.290572879162
100.293372540322
100.292930866408
100.292288950893
100.291635753173
100.298152985012
100.298546128493
100.298701379659
100.296475167977
100.297294601993
100.299318101854
100.297236952372
100.299121678295
100.299691982747
100.301372703695
100.301457107766
100.301118630212
100.301686376083
100.298866843334
100.299840756874
100.299834082141
100.299097284318
100.299703260379
100.299097480205
100.299126318688
100.299034581275
100.299056823351
100.299174873878
100.299518135667
100.29962492383
100.299879967165
100.300059257219
100.299960433089
100.299495730377
100.298882135659
100.298679179285
100.298998769776
100.29916118688
100.299243957971
100.299140758626
100.299136557189
100.299172920631
100.29907043157
100.299086327708
100.298942847356
100.298856631345
100.298213131062
100.298464509132
100.298605308178
100.298956194983
100.299272556194
100.299301626054
100.299038905866
100.298790143343
100.299075783898
100.299268952431
100.299273548467
100.299017593871
100.299408825826
100.299131816471
100.299013269696
100.29974294373
100.300436481456
100.29993973424
100.299935508326
100.299553536893
100.29909950043
100.298892876993
100.299568557276
100.300166505291
100.3001350916
100.299578765549
100.299866216151
100.300340259541
100.300271024836
100.300144182968
100.299622954874
100.299692660921
100.300264876165
100.300319110801
100.300527232254