/*--------------------------------*- C++ -*----------------------------------*\
| =========                 |                                                 |
| \\      /  F ield         | OpenFOAM: The Open Source CFD Toolbox           |
|  \\    /   O peration     | Version:  v1612+                                |
|   \\  /    A nd           | Web:      www.OpenFOAM.com                      |
|    \\/     M anipulation  |                                                 |
\*---------------------------------------------------------------------------*/
FoamFile
{
    version     2.0;
    format      ascii;
    class       volScalarField;
    location    "0.3";
    object      p;
}
// * * * * * * * * * * * * * * * * * * * * * * * * * * * * * * * * * * * * * //

dimensions      [0 2 -2 0 0 0 0];

internalField   nonuniform List<scalar> 
80212
(
100.342646577453
100.342032093851
100.341982652874
100.344740763027
100.348292738216
100.348267811949
100.34858437212
100.348504840854
100.349025156593
100.350536968082
100.349863480878
100.348901055721
100.349215609873
100.350334638758
100.350956977038
100.349178909652
100.348608923187
100.348595292406
100.34827760805
100.348293770486
100.348864109147
100.349093117687
100.34997282652
100.351730195404
100.350137245739
100.348070728136
100.347122131987
100.346944332202
100.347377796691
100.347746188578
100.350356462516
100.350144148532
100.349398792805
100.349015837306
100.347583146883
100.347880043818
100.348607527706
100.347823909941
100.349274567061
100.351244792581
100.351165464418
100.349188817658
100.347773183102
100.348587965929
100.347865588105
100.347563032453
100.348988700316
100.349373196873
100.350108643315
100.350343726706
100.347736572198
100.347371721507
100.346945626683
100.347124419206
100.348072973012
100.350139160247
100.351730690067
100.349972722763
100.349097895021
100.348869601904
100.34577721876
100.346093993017
100.345548202427
100.345790204118
100.34553196097
100.345437349662
100.345002581232
100.344739058517
100.345234134244
100.345183658113
100.345536657516
100.345452817948
100.345241522635
100.345767923132
100.345077234823
100.344627282653
100.344873528388
100.34486103874
100.344934333168
100.344663405518
100.344657303313
100.34492821244
100.34485377933
100.344872492954
100.344645232876
100.345118268311
100.345810086505
100.345279409231
100.345476620627
100.345548473634
100.34518711313
100.345235083918
100.344736617384
100.345003195716
100.345435568929
100.345526414615
100.345786593506
100.345544618712
100.346086864797
100.345770443842
100.344745281402
100.344835502963
100.346018593792
100.346437828967
100.345879441135
100.346515584592
100.346004995997
100.345763385788
100.345925426847
100.346308404687
100.346694877688
100.345935482464
100.346472888092
100.346041787525
100.344843964162
100.342073746731
100.343665677867
100.341221512831
100.341304988694
100.341448086952
100.344163836838
100.342485885799
100.340512004177
100.341576675927
100.342527193868
100.342646922821
100.342352649594
100.34328643241
100.343478414444
100.342367910675
100.342701432459
100.342592835445
100.342549981806
100.342261759322
100.341126651312
100.34050699792
100.342355768693
100.341698781642
100.340738417331
100.340728816767
100.341702499745
100.342332356727
100.340484825146
100.341131699679
100.342319090128
100.34261194221
100.342651720512
100.342737155756
100.342381059723
100.343479164123
100.343286424079
100.342351866572
100.342646334182
100.342524658082
100.341573123271
100.340505806262
100.342481723814
100.344153869192
100.343325763506
100.341981875848
100.342047394012
100.343614651708
100.344758981979
100.342916000309
100.341008726345
100.341766718929
100.342575887717
100.342669250738
100.341959804004
100.341193655113
100.343067661303
100.344850249061
100.341230927536
100.332044456492
100.332608312171
100.332756112651
100.332314439984
100.333165024365
100.34152250897
100.341903888762
100.341935654478
100.342779694575
100.344486107469
100.341893297049
100.341100101091
100.339913506254
100.343129829148
100.340861254933
100.340302961107
100.338971761114
100.340126539791
100.339608573379
100.343532504582
100.343577709153
100.339638137216
100.340215546435
100.339338363689
100.340451176169
100.338929268788
100.341528447096
100.342040593764
100.342560866647
100.341003864574
100.343255563989
100.339950865306
100.34110027393
100.34189447634
100.341514209689
100.341434491995
100.341293648702
100.341224410987
100.3412411196
100.341036865147
100.341008812601
100.332949489528
100.331421134128
100.331132825798
100.331412115338
100.331450749145
100.331224182203
100.331593975025
100.331695882538
100.333054449055
100.33294197493
100.333137094213
100.334175819965
100.339325665763
100.338719465053
100.3353587031
100.333684661849
100.332600262035
100.332695438587
100.334537899351
100.334081971848
100.334049126128
100.334465039675
100.334082784365
100.33306432941
100.332909290077
100.333037886488
100.333160470242
100.332312841448
100.332760402686
100.332622766131
100.332074838777
100.332983929289
100.331427497496
100.331978401651
100.331978195794
100.331956246856
100.332089453575
100.332112032943
100.332054948101
100.33218167132
100.332303413894
100.332494187954
100.33187957221
100.332200133626
100.33246258569
100.332515993847
100.332504396889
100.332801607308
100.333054380813
100.333006212135
100.332576890335
100.332483301147
100.332124678797
100.331843319232
100.331678076895
100.331585370275
100.331218675262
100.331458845585
100.331415524703
100.331131352299
100.331944570113
100.331775879029
100.331776090655
100.331775901322
100.331773960257
100.331888937016
100.331922244223
100.331925583635
100.332022391086
100.332045739099
100.332191034549
100.332080731619
100.332064145663
100.332028029525
100.332140475669
100.33214738484
100.33278979819
100.332429580094
100.332437235867
100.332427046027
100.332486820786
100.332299405841
100.332178975778
100.332058871208
100.332110797961
100.332083854297
100.331893192378
100.330834196301
100.330734235768
100.330747080372
100.330744856955
100.330727353642
100.330825409176
100.330876535343
100.330900906457
100.331039798674
100.331055261618
100.33115232161
100.331101993576
100.331139643103
100.331128645103
100.331186167186
100.331198223301
100.331161501923
100.331190357584
100.332086355678
100.332085885916
100.332194334265
100.332053866439
100.332026282929
100.331933079376
100.331923434852
100.330883325466
100.329670131225
100.329592468248
100.329496787693
100.329507151785
100.329504001505
100.32948920395
100.329580232299
100.329655069326
100.329716999352
100.329898883323
100.329962052479
100.330074552626
100.330089748821
100.330182689677
100.330209334284
100.330261759798
100.330256328707
100.33020401629
100.330185482253
100.330096663002
100.331128729606
100.331175570337
100.331060888513
100.331054254105
100.330914979996
100.32973291819
100.328600974804
100.328492595611
100.328372204189
100.328250306889
100.328245834961
100.32824193982
100.328239312187
100.328355762193
100.328471395713
100.328581514352
100.328830141735
100.328958764739
100.329118993594
100.32918395284
100.329326887468
100.329386080476
100.329455710785
100.329459279954
100.329388456935
100.329332441176
100.32920717854
100.329152945671
100.328988596212
100.328860605774
100.327764166431
100.327416204983
100.327234968933
100.327040036502
100.326858845428
100.326831881301
100.326826508954
100.326842638401
100.327017967208
100.327205301145
100.327381361694
100.327726319253
100.327959578562
100.328187026277
100.328314729603
100.328519544718
100.328617555321
100.328740809773
100.328775896417
100.328716695416
100.328619879813
100.328383214203
100.328236081497
100.328000419887
100.326869361081
100.326478580228
100.325947810399
100.325701454103
100.325383464374
100.325098461316
100.325054149523
100.325046105808
100.325076484922
100.325353741365
100.325661256333
100.325899472515
100.326426145812
100.326812384558
100.327144514933
100.327371877812
100.32770389908
100.32782459682
100.328073088379
100.32812452754
100.327962011051
100.327835286443
100.327472329587
100.327212170912
100.32589908694
100.32541648524
100.324771051426
100.323875391047
100.323623415205
100.323122503793
100.322672875718
100.322639652194
100.322628168877
100.32263938006
100.323081546061
100.323569326059
100.323811699959
100.324699207163
100.325338647916
100.32581970636
100.32623332256
100.326818718913
100.326854504281
100.327350791513
100.327380598987
100.32695721278
100.326906022475
100.326324816277
100.324757874208
100.323836074163
100.323126751722
100.322267666915
100.320642698751
100.320441279643
100.319729528618
100.318836675436
100.318958194397
100.318932590971
100.318774442773
100.31967416356
100.320366503983
100.320563603493
100.322168158497
100.323021347812
100.3237351603
100.324671285826
100.325701907273
100.325432606474
100.326401547347
100.326429280146
100.325478095869
100.325753222844
100.324842031536
100.322636879884
100.319141484756
100.318820771047
100.317749728323
100.314634032681
100.314652697874
100.313680602033
100.311769902483
100.312575382692
100.31254310924
100.311621455332
100.313623453338
100.314540599071
100.314536481373
100.317587235926
100.318666507723
100.318972982845
100.322513504295
100.324763227006
100.323386511182
100.325450355684
100.325486105351
100.323422867634
100.321997939985
100.317536012
100.312187188419
100.311405434904
100.313478119595
100.311588949422
100.306325728416
100.306493209696
100.305211383248
100.301549174529
100.303594889953
100.303599569826
100.301501539692
100.30511082848
100.306346798743
100.306109365548
100.31138821513
100.313257137833
100.311119577022
100.312020753768
100.317455516399
100.321922005685
100.317457231968
100.316070109214
100.316033737184
100.317430420736
100.331708310216
100.334183965121
100.33242999064
100.328059271255
100.326978921363
100.323187530226
100.317795434954
100.316297976486
100.314781368563
100.310891600494
100.311713078259
100.311716483938
100.310838294445
100.314670500313
100.316120987979
100.317478894614
100.322848304427
100.326617172215
100.327693352385
100.332160992054
100.334014490838
100.331609798478
100.336891053039
100.336898571371
100.375958502579
100.372265977555
100.370190453785
100.369339558504
100.365850165671
100.360741290861
100.354485015012
100.354712188125
100.345764880417
100.345368255979
100.342122327246
100.350809142975
100.36765472333
100.367676636009
100.350751899348
100.33589471163
100.335910611203
100.383861796368
100.419632192732
100.398675335266
100.39878087038
100.407133995508
100.399235190416
100.383145056474
100.342070637617
100.345214465499
100.345566137268
100.354318965572
100.35397380585
100.36019986543
100.365328780882
100.368980490577
100.369934614325
100.372134572286
100.375906668156
100.416939008154
100.41697914461
100.432587353184
100.421271176953
100.415606899974
100.412420820351
100.412847463301
100.420164029979
100.400643483641
100.392389009555
100.406281514424
100.392086114784
100.397992272519
100.397441323634
100.399223586125
100.406956559434
100.439155763049
100.433079964339
100.433132286466
100.439347792574
100.427747306463
100.430109341288
100.433852556642
100.397717080729
100.383310073672
100.397367897446
100.435350927
100.454341872368
100.468497167806
100.475924674583
100.480765678045
100.485444082297
100.487857171181
100.489161965816
100.490077014972
100.490696023187
100.491142611028
100.491562544277
100.492006493897
100.492475452778
100.492953220856
100.4934238971
100.493903786735
100.494455686646
100.495178276204
100.496362256245
100.498413730749
100.502072041876
100.508090952346
100.518559686615
100.529560263379
100.548385502256
100.537207175878
100.487316258764
100.439078122049
100.388386344619
100.360483195228
100.378417979588
100.378954847703
100.376857216269
100.376891738466
100.377965689128
100.379122617898
100.380319805361
100.381713255578
100.383261673958
100.384766575541
100.386015857863
100.386873939034
100.38726028596
100.386683303802
100.385927134221
100.384952018604
100.38378303455
100.382438212554
100.380869257807
100.379080154377
100.377177840046
100.375251846148
100.373311303544
100.371393402267
100.369686236743
100.368659181311
100.369015772975
100.371066864301
100.373014224839
100.373118823635
100.372858236858
100.373561819843
100.37411825531
100.374372432937
100.374489739669
100.374667179919
100.374838299735
100.374943732971
100.374966557476
100.374998414397
100.375042346598
100.375088202481
100.375138088506
100.37523351332
100.375395980187
100.37551510587
100.375417384745
100.375396939529
100.375482596045
100.375371599115
100.375325460861
100.375328026475
100.37526665214
100.37538569496
100.375328025225
100.375159666663
100.375083029188
100.375028760516
100.374962134519
100.37497615949
100.374936004407
100.374893361975
100.374864600072
100.374767632279
100.374534029891
100.374735566612
100.374806909309
100.374838763979
100.374881083329
100.374915832132
100.374978758618
100.375030550685
100.375084697326
100.375253575559
100.375084853442
100.375136588077
100.375142865809
100.374965643084
100.374965767499
100.374967978933
100.374915323737
100.374849577006
100.374818389413
100.374770053187
100.374735539824
100.374663171624
100.37458891304
100.374313483463
100.374065354082
100.374323958622
100.374555493457
100.374596089491
100.374672595454
100.374700169918
100.374760880643
100.374796416152
100.374853205206
100.374881003388
100.375049360141
100.375176996289
100.375141347322
100.374832663438
100.374616773517
100.3748193773
100.374838750341
100.374807815706
100.374986470979
100.374877509617
100.374964051712
100.375052162487
100.374980617207
100.374833143776
100.374785932129
100.374728019758
100.374701716564
100.374638200695
100.374611612947
100.374523639724
100.374473653096
100.374260648817
100.373881037296
100.374235169245
100.374425965375
100.374472941434
100.374553925652
100.374576224359
100.374634423782
100.37467824821
100.374729114566
100.37476561348
100.374930649219
100.374983846922
100.374829536215
100.374843308317
100.374982869471
100.37481020897
100.37481500891
100.374770565537
100.374871257802
100.374708702495
100.374689893268
100.374626990825
100.374549541513
100.374562467518
100.374528612258
100.374481119035
100.374416234218
100.374358090367
100.374179645369
100.373798455255
100.374177723739
100.37432623448
100.374373392164
100.374420737776
100.374477617761
100.374507249101
100.374567237105
100.374636829033
100.374643765036
100.374627640293
100.374563110883
100.374756099057
100.374947123761
100.374770694962
100.374577517696
100.374676454752
100.374865956024
100.374737508037
100.374884142392
100.374716074202
100.374506548558
100.37445272624
100.374513544893
100.374460233992
100.374429234701
100.374368687004
100.374331991607
100.374283577312
100.374157048775
100.373792606851
100.374190315
100.374252769266
100.374303237329
100.37432305124
100.374379564469
100.374405965595
100.374416002505
100.374375770458
100.374411417928
100.37442995464
100.374586120922
100.374676687009
100.374717291869
100.374773651152
100.374560777904
100.37440408671
100.374368609089
100.37450828039
100.374603604513
100.37469035066
100.374283968986
100.373868743433
100.374269767854
100.374170388336
100.374543876681
100.374443632332
100.374525924215
100.374469335559
100.374349546438
100.37432989129
100.374362242522
100.374306208002
100.37432264956
100.374341941596
100.374316909983
100.374262033448
100.374225087152
100.374149764352
100.374066403931
100.373695818645
100.37337822939
100.373871035508
100.374077614954
100.374135756801
100.374207382403
100.374237822325
100.374295178188
100.37426948522
100.374275982273
100.374295739212
100.374271596817
100.374296824969
100.374318340298
100.37440479553
100.374445327729
100.374332492908
100.37449053181
100.374372510389
100.374300197359
100.374276784935
100.374353283088
100.374369290805
100.37423207531
100.373932453065
100.373993217285
100.374315036171
100.37422503424
100.374362275317
100.37435017811
100.374274509998
100.374256256927
100.374253362258
100.37426028421
100.374222062319
100.374231423013
100.374241803939
100.374210190693
100.374191277705
100.37412182866
100.374058871357
100.373874890605
100.373485103064
100.373970402785
100.374061085997
100.374129128667
100.37417238503
100.374225929479
100.374218004765
100.37416622974
100.374133729465
100.374070394308
100.37398398068
100.373894230218
100.373505454547
100.373137067624
100.3737229992
100.373947023854
100.374012527404
100.374091960964
100.374143851854
100.374163452327
100.374208545849
100.374237909183
100.374239666799
100.374253852191
100.374259389411
100.374328952585
100.374325764906
100.374203718275
100.374373296793
100.374332637927
100.374259662873
100.374242869961
100.374348168495
100.374331753909
100.374237868709
100.373848856751
100.37431563541
100.374259403729
100.374429469204
100.374351036179
100.374347545395
100.374244442909
100.374250587702
100.374246999684
100.374246896658
100.374200368003
100.374194353352
100.374200860972
100.374192518081
100.374145829358
100.374110907933
100.37403994527
100.373972366989
100.373767919331
100.373380406454
100.373900865254
100.374009890137
100.374073292827
100.374129619746
100.374146013478
100.374198798461
100.374195137026
100.374184281056
100.374184867034
100.374231566651
100.374262633524
100.374251765389
100.37436868302
100.374380689509
100.374336806751
100.373891491533
100.374420087288
100.374339492999
100.374496230638
100.374460665273
100.374389040968
100.374270471904
100.37427487266
100.374254568752
100.374210824781
100.374206757338
100.374160972827
100.374142333736
100.374101380937
100.374042842797
100.373959010626
100.373882092148
100.373488020033
100.373286079483
100.373755411436
100.373964205929
100.374016453913
100.374089794826
100.374135623926
100.374158676885
100.374212419708
100.374210075632
100.374250939481
100.374290159089
100.374295372346
100.37445506635
100.374552382827
100.374555769187
100.374234037729
100.374543982483
100.374585647143
100.374483376523
100.37449900198
100.37448743031
100.374306521578
100.374330235825
100.374288035033
100.374241992643
100.374237569627
100.374187183343
100.374177146352
100.374135989441
100.374074321227
100.374021527334
100.373826226917
100.373594535929
100.374012457992
100.374091312753
100.374135045173
100.374187963947
100.374212338311
100.374257744519
100.374255536412
100.374304429231
100.374305858386
100.374336601518
100.374343051521
100.374360822809
100.374514893714
100.374588092302
100.374586307349
100.374219328616
100.374489496784
100.374530077084
100.374482366377
100.374352094388
100.374370169017
100.374490457457
100.374496721347
100.37439439851
100.373999122583
100.374464483162
100.374388488345
100.374528542757
100.374530527069
100.37448147057
100.374398097328
100.374391560484
100.374364281227
100.374377853635
100.374311211086
100.374268957758
100.374264974897
100.374285162739
100.374229930371
100.374212067065
100.374146656999
100.374064511199
100.374050087067
100.373715625755
100.373527082035
100.374024597699
100.374129311458
100.374153213223
100.374218962079
100.374264192509
100.374268013788
100.374318109536
100.374326104184
100.374357911862
100.374339112081
100.374397582639
100.3743934428
100.374421686389
100.374420271404
100.374428289546
100.374536062017
100.374580723241
100.374555734449
100.374139372561
100.374529711337
100.374590065765
100.374548711839
100.374434218229
100.374444859682
100.374591965984
100.374630997516
100.374577558105
100.374206910225
100.374565770668
100.374596638413
100.374665072021
100.374691678834
100.374607579001
100.374482121591
100.374494799714
100.374450867543
100.374456362799
100.374404284773
100.374363839637
100.3743590547
100.374310348652
100.37429800019
100.374264323902
100.374176890524
100.374121613475
100.374064013355
100.373709551095
100.373543235244
100.374005865165
100.374192227619
100.374220612859
100.374301597859
100.374334388238
100.374331924862
100.374391602601
100.374418412304
100.374377189189
100.374385257044
100.374370912854
100.374353013386
100.374287532026
100.374122833759
100.373955008573
100.374311961291
100.374391225221
100.374427352949
100.374434907392
100.374433139045
100.374469592462
100.374448770624
100.374492453234
100.37448957575
100.374532226748
100.374532251586
100.374533295069
100.374656653233
100.374722176523
100.374564508989
100.374650936903
100.374648270108
100.374528307799
100.374582297215
100.37470892701
100.374721450933
100.374647227629
100.374296415907
100.374592851103
100.374704882946
100.374700057656
100.374585842574
100.374578989096
100.374541082496
100.374496628846
100.374479589697
100.374513518525
100.374473071768
100.374484498423
100.374467271656
100.37445721383
100.374407857267
100.374129060865
100.374089210747
100.374427195678
100.374521865493
100.374547031178
100.374546847578
100.374537728285
100.374573592559
100.37453550526
100.37458427682
100.374619917223
100.374627006909
100.374750561565
100.374769913023
100.374697290156
100.374344327294
100.374628705879
100.374739432217
100.374735435624
100.374636023858
100.374634547218
100.374591183251
100.374598542284
100.374581948945
100.374623944336
100.374592396648
100.374612680053
100.374607104673
100.374616158028
100.374553339039
100.374288917285
100.374337535015
100.374605745125
100.374682601175
100.374694781199
100.374684642897
100.374672330907
100.37464901619
100.374667518429
100.374643443678
100.374698894156
100.374691428831
100.374795882966
100.374812076981
100.374758518472
100.374413708967
100.374721489568
100.374817464776
100.374808932415
100.374701759851
100.374695543166
100.374756894062
100.374757591901
100.374867014021
100.374884684696
100.37484290386
100.374548929884
100.374804109252
100.374909502094
100.374882996483
100.374768867008
100.374765187432
100.374718796003
100.37469106386
100.374744011254
100.374723089569
100.374744806574
100.374760962694
100.374767834194
100.374781212805
100.374734122313
100.374510764486
100.374606953925
100.374793667089
100.374875266211
100.374867328466
100.374848097559
100.374822371658
100.374793011489
100.374810474252
100.374791091659
100.374824324183
100.374825064242
100.374952548981
100.375004238486
100.374988512438
100.374704347088
100.374971117912
100.375031625147
100.374979637404
100.37485161887
100.374843136826
100.374907312709
100.374919749768
100.375060903257
100.375128250849
100.375136464979
100.374859739773
100.375079069977
100.375139749178
100.375092842839
100.374947068566
100.374926239484
100.37487212457
100.374836836461
100.374890227106
100.374870620627
100.374915168986
100.374942826074
100.374964488059
100.37499047836
100.37492256632
100.374883899443
100.374912975305
100.374568712175
100.374310694514
100.374271148844
100.373972083507
100.373951411258
100.373676179904
100.3737344596
100.373454650582
100.373230817089
100.373321568769
100.373141143441
100.373291378273
100.373116075111
100.372945908137
100.373114476782
100.372996350252
100.372951157472
100.373110213151
100.373138897531
100.373231571178
100.373439261427
100.373531159928
100.373681288013
100.373898911958
100.374132267493
100.374283565798
100.374056589157
100.374274546255
100.37451621912
100.374700231513
100.374829912413
100.374974721813
100.375088037027
100.375115981019
100.375151742064
100.375198556944
100.37524720536
100.375307154702
100.375419544345
100.375570901534
100.375684906629
100.375604402768
100.375516506875
100.375456404654
100.375201614746
100.374778596597
100.374308454683
100.374339718603
100.374573847901
100.374684488743
100.375174815298
100.375025167861
100.374714429589
100.374756816572
100.374680704859
100.374152729364
100.373485608199
100.372861731483
100.373235167858
100.373526064157
100.373531439916
100.373494150935
100.373889188858
100.374041850386
100.374084786875
100.374030723758
100.373775335409
100.374117038446
100.374573764424
100.374662552874
100.3748139215
100.374723973648
100.374737301853
100.374698371339
100.374753384796
100.374805637029
100.374869858264
100.374939708972
100.375018012459
100.375034169463
100.375073315457
100.37512583961
100.37516802495
100.37520605652
100.375307267847
100.375476782363
100.37560285776
100.375544942995
100.375570715353
100.375555595313
100.375436568255
100.375226752089
100.375173753621
100.375147559233
100.375222757501
100.375292843114
100.375313880763
100.375379260127
100.375479475644
100.375617688376
100.375717663198
100.375635968132
100.375551395245
100.375263553436
100.37486582586
100.374482936754
100.374400609972
100.373772036544
100.37319129618
100.372786888766
100.372889716179
100.373101666852
100.373037084074
100.372992519481
100.372972791116
100.371793661024
100.37126318021
100.371081284392
100.371057294183
100.370930646725
100.371339317528
100.37179096083
100.371875383894
100.371782007842
100.371148148837
100.371689534054
100.372176469975
100.372509551486
100.372872252834
100.3744598025
100.374609971851
100.374701670938
100.374758483989
100.37477113216
100.374860295704
100.374907214821
100.374894108809
100.375003308255
100.375013644776
100.375100066968
100.375160812285
100.375148955903
100.375185448515
100.375218211499
100.375263343435
100.375336955055
100.375383369736
100.375446459118
100.375542092464
100.375675443164
100.375772466884
100.375691355833
100.375601638706
100.3753384802
100.374969898896
100.374590699471
100.374028884919
100.373519130398
100.373134970057
100.372960589862
100.372239914575
100.371981493617
100.371755726495
100.371568499458
100.371387859617
100.371105022104
100.371042487902
100.371414680292
100.371742399088
100.371857387303
100.372028735052
100.3716582593
100.371921872335
100.37215567167
100.371717374768
100.373220011427
100.374572589721
100.374856094762
100.37505615247
100.375039247411
100.375119579072
100.375234020539
100.375260817318
100.375292180473
100.375364728901
100.3754072263
100.375450513195
100.375508631754
100.375598084182
100.375725552778
100.375806607059
100.375737831227
100.375643647098
100.375394686042
100.375050060828
100.374664886337
100.374163729673
100.373679607732
100.373282553429
100.372660642851
100.372495585397
100.372275325132
100.372062055103
100.371946553659
100.371990547679
100.371770858062
100.371402497719
100.371624850488
100.371737872712
100.371331788746
100.371438589627
100.371071804946
100.370681435009
100.370293080271
100.36998132143
100.369708767178
100.369471577986
100.369788749586
100.370179501704
100.370426150023
100.370776149081
100.371061371361
100.370794068778
100.370658570174
100.37064485229
100.370542757593
100.371423259732
100.373044670983
100.374545628962
100.374726327075
100.374789449966
100.374998418865
100.37465127868
100.374828865496
100.375002930469
100.375191818442
100.375297899436
100.375332167541
100.375406806031
100.375437984917
100.3754751853
100.375518017295
100.375584333096
100.375675592655
100.375790197917
100.375865772334
100.375803665251
100.375717313759
100.375486279917
100.375156607297
100.374798607097
100.374301938517
100.373844584941
100.373477188627
100.372870323635
100.372725030507
100.372585286881
100.372509259439
100.372563289477
100.37225781079
100.372159458373
100.372439878936
100.372153174808
100.371879517518
100.371603809517
100.371230713044
100.370875811589
100.370281837423
100.370575536656
100.371060389032
100.371432865439
100.371601148101
100.371872569174
100.371882154972
100.371705276478
100.370988360207
100.371403536013
100.370613737942
100.370172160558
100.370154321578
100.369363175822
100.368493809135
100.367492588138
100.366878310634
100.364985700653
100.366051463011
100.367216208854
100.368462381492
100.369452653951
100.370311095621
100.370996058318
100.370872224943
100.370889481635
100.370278599758
100.369601871781
100.368787104209
100.367567515637
100.366945371389
100.364701972205
100.360038667008
100.358874076314
100.363320070055
100.364869265972
100.364101691222
100.36119339652
100.359520614102
100.359680924723
100.356451269317
100.357018249566
100.358791066208
100.361547920288
100.362811422242
100.364444585801
100.364888264787
100.36657117274
100.367987731073
100.369250518089
100.370197154555
100.371041278512
100.371687714093
100.372245922635
100.371557423096
100.371468374468
100.371394977375
100.373530809528
100.373300198479
100.372928843929
100.372496597315
100.371986349686
100.371299640009
100.370900897147
100.368852762957
100.366744115879
100.366941098543
100.369188384057
100.369357625259
100.368140778948
100.363993847587
100.362720760318
100.36225724354
100.350327775665
100.354016841263
100.352906837955
100.353748882989
100.359421787515
100.357367294469
100.365864974075
100.371381141845
100.37347025602
100.373532586174
100.373746235245
100.37367708407
100.373981236341
100.374277246644
100.374525912956
100.374604932392
100.374829306444
100.374905104263
100.375102596769
100.375181648159
100.37527156646
100.375381961334
100.375445705425
100.375476997236
100.375509145519
100.375543702784
100.375588547
100.375650523397
100.375729176502
100.375832037838
100.375907092718
100.375851158704
100.375775861333
100.37556724703
100.375233481192
100.3749107725
100.374394429326
100.373950379225
100.373621321089
100.373041891048
100.372911438748
100.372768473458
100.372759988857
100.372797933996
100.372719808017
100.372934421298
100.372710750625
100.372684227465
100.372733376792
100.372782137824
100.37254305684
100.372324107304
100.37205227712
100.372185934554
100.372469905775
100.372411308596
100.372123084011
100.371758892859
100.372073374789
100.371706799157
100.371325049866
100.370942535186
100.370531432156
100.37007942523
100.369651004402
100.36890852311
100.369294064584
100.369873723639
100.370375866052
100.370657594326
100.37105366743
100.371435963055
100.371452288596
100.371287243886
100.370814272317
100.370264080971
100.369818765469
100.369089798627
100.368714160125
100.370970513585
100.373270833586
100.373572871415
100.373878805506
100.375016770634
100.3752082073
100.375358296694
100.375422823251
100.375525817142
100.375544244107
100.375575977417
100.3756113606
100.375656195253
100.375714982241
100.375781156364
100.375888202389
100.375960593151
100.375919331185
100.375843746171
100.375668340228
100.375351156507
100.375039969277
100.374555746523
100.374161891608
100.373789214858
100.373262627654