/*--------------------------------*- C++ -*----------------------------------*\
| =========                 |                                                 |
| \\      /  F ield         | OpenFOAM: The Open Source CFD Toolbox           |
|  \\    /   O peration     | Version:  v1612+                                |
|   \\  /    A nd           | Web:      www.OpenFOAM.com                      |
|    \\/     M anipulation  |                                                 |
\*---------------------------------------------------------------------------*/
FoamFile
{
    version     2.0;
    format      ascii;
    class       volScalarField;
    location    "0.4";
    object      p;
}
// * * * * * * * * * * * * * * * * * * * * * * * * * * * * * * * * * * * * * //

dimensions      [0 2 -2 0 0 0 0];

internalField   nonuniform List<scalar> 
79506
(
100.130781787234
100.132867216686
100.129099826811
100.133643193384
100.140598553002
100.140838348194
100.138897879255
100.139504844936
100.139894254922
100.140067774134
100.140462477172
100.140084274229
100.141764403969
100.14120351032
100.143331834575
100.143357514386
100.14129584021
100.138415837391
100.135204319688
100.134823288426
100.134924938151
100.136686683896
100.134273494782
100.135469085639
100.137410917947
100.142246050894
100.136848114757
100.135835787166
100.135080314078
100.134725856801
100.134819078057
100.134883800949
100.135712267852
100.136671095563
100.142156149966
100.137170793276
100.135186896594
100.133929949358
100.136310792229
100.134517852411
100.134454709327
100.1348426164
100.138066849727
100.140988804949
100.142940474419
100.142814923641
100.136167129806
100.13497438836
100.131586647364
100.132094322687
100.132622876806
100.132463082346
100.132555491256
100.13256320229
100.130321393491
100.133549329483
100.137240745555
100.135757492339
100.132373161048
100.131430784323
100.130405858059
100.131251897179
100.13133530485
100.130672741752
100.131553187408
100.132560549417
100.1360636532
100.137536937078
100.133815706665
100.130601412618
100.132899851668
100.132922231736
100.132771759341
100.13289531742
100.132263686303
100.131760184907
100.135286496223
100.136535646316
100.13412156167
100.137439107227
100.140614575053
100.142411822595
100.14042583219
100.139865425827
100.140935199857
100.139083607036
100.136601814299
100.132411223279
100.137863000041
100.126278523885
100.11506332416
100.121243022491
100.122858068127
100.132118606338
100.126275307118
100.127421712718
100.130143532458
100.12946151824
100.128963956122
100.128991759459
100.128959048682
100.133538975937
100.134342192553
100.12980990661
100.130171768967
100.127638984218
100.126453525298
100.127348091232
100.127360226431
100.126485223802
100.127749750036
100.130384437052
100.130089504735
100.134625343326
100.133835375496
100.129243749892
100.129350795771
100.129337862485
100.129780197899
100.130440559743
100.127612402208
100.126395016695
100.132566682904
100.133044550402
100.129598540966
100.133446495466
100.139966801081
100.145183037203
100.138629257239
100.138095313316
100.142644900799
100.158109346931
100.126995549187
100.127506227915
100.112476102888
100.085824313514
100.086680058681
100.082369448185
100.083077696825
100.089272079604
100.119501561939
100.129766455533
100.126870136367
100.126630426787
100.130779928783
100.13699546304
100.120275136875
100.120833270597
100.122251844735
100.131591822847
100.12664509161
100.126669244592
100.131710432601
100.122259530406
100.120965409178
100.120466112824
100.119053799148
100.119780176479
100.12330919436
100.121119500706
100.081202505479
100.083257567761
100.084553088357
100.084303602491
100.083228407571
100.083279842016
100.085179339904
100.085607707654
100.089719422369
100.118853627761
100.114000741601
100.097684772917
100.09190566737
100.091833555439
100.089148115877
100.089944359037
100.084445360784
100.084551918292
100.086695635156
100.090427761432
100.090336994465
100.086529393291
100.084392317118
100.089747416245
100.088963866054
100.082592749332
100.083200458098
100.089720946209
100.090177880016
100.089317388546
100.089012247062
100.089884921988
100.08975281168
100.089020265801
100.090252433729
100.090337060277
100.090826794658
100.090944813171
100.090247205518
100.085451139433
100.086257105712
100.086226597455
100.085412340558
100.084408749567
100.085358672639
100.084906795546
100.088835930262
100.090115399874
100.090745906053
100.091032644696
100.090338800601
100.090284580714
100.091000544184
100.090913977669
100.088779200228
100.088575223181
100.088665178958
100.088751474683
100.088824257202
100.088678717704
100.090506016016
100.089593135079
100.089583016044
100.090174860086
100.089726987904
100.088927480311
100.090142913014
100.088461902353
100.088369939402
100.08852824117
100.088629122562
100.088441280916
100.088490899082
100.088795443814
100.086361844406
100.086375191375
100.086321952443
100.08639706274
100.086380201067
100.086427079447
100.08635721713
100.086319171164
100.088635795835
100.090469716444
100.090799411672
100.090641335457
100.088572555914
100.086197071713
100.086181724121
100.086080082613
100.086126112616
100.08616864764
100.086146916902
100.086213436518
100.084324645431
100.08444253921
100.084458914995
100.084405245238
100.084465661038
100.084449430486
100.084471428817
100.084401154575
100.084366036943
100.084366642932
100.086321813217
100.088696740947
100.089103924847
100.086501759865
100.084495802106
100.084271025416
100.084249956535
100.084187484445
100.084250803657
100.084289077333
100.084258574856
100.082553822461
100.082625103874
100.082726783344
100.082733929935
100.082677731676
100.082736067293
100.082720775841
100.082729339629
100.082661488374
100.082629336964
100.082629074192
100.082553379202
100.082537551971
100.082502042809
100.082556249346
100.082577834343
100.080834620257
100.080806163542
100.0808753676
100.080972192169
100.080956752614
100.080910902185
100.080981809061
100.080965691779
100.080972808746
100.080919272776
100.080892557886
100.080888484294
100.080823088124
100.080814173298
100.080793387891
100.080830004421
100.07906677803
100.079134722171
100.07898563906
100.078971083382
100.079147363679
100.079120922189
100.079079629542
100.079167874956
100.079157677055
100.079172734717
100.079136429737
100.079117960351
100.07911074611
100.079053160295
100.079045896452
100.0790326229
100.077244204786
100.07723578741
100.077334882469
100.077020352486
100.076888228894
100.07715257642
100.077212090134
100.077225300152
100.077334127006
100.077335365466
100.077362259078
100.077345780162
100.077337890023
100.077330700541
100.077283367461
100.077268028153
100.075489345281
100.075433066418
100.075354425901
100.075317326859
100.075493783804
100.075388858714
100.075155604644
100.075318267401
100.075382098002
100.075503485694
100.075528285126
100.075571617518
100.075576312594
100.07557756609
100.075569528408
100.075521892331
100.073766151669
100.073702510385
100.073599541903
100.073487444549
100.073238518413
100.073654198941
100.073699055504
100.073303354385
100.073491685314
100.07355607731
100.073691322303
100.07374518656
100.073815223296
100.073844997176
100.073850780062
100.073831116705
100.072112541211
100.072005697484
100.071891346261
100.071712389898
100.071596976319
100.071274716935
100.071169854122
100.071308624386
100.07148195266
100.071630370147
100.071721414707
100.071898844745
100.071998155791
100.072110869934
100.072168342017
100.072166517275
100.070528617218
100.070392818017
100.070206237413
100.070009818076
100.069708491228
100.069539464642
100.069288146488
100.068942887243
100.069027423906
100.069393645747
100.069593563497
100.069832031249
100.0701094211
100.070273541077
100.070455017207
100.070554541156
100.068978891657
100.068904249566
100.068584223595
100.068279323635
100.067926843696
100.067434179196
100.067088446706
100.066820497838
100.066352138858
100.066381588486
100.066880683026
100.06726968518
100.067801183575
100.06823415235
100.068542271692
100.068794926941
100.066918199545
100.067286678072
100.06711059249
100.066439594609
100.066009207275
100.065345221395
100.064549889219
100.063946814361
100.063509323498
100.062571712719
100.062721390337
100.063865877731
100.064451184965
100.065314765957
100.066058424085
100.066625319344
100.064081601276
100.064309764297
100.065128483063
100.064747839266
100.063387420376
100.062881276321
100.061877516573
100.060461652727
100.059119122109
100.058533874451
100.056842155307
100.057150437347
100.059355109842
100.060168491671
100.061856135376
100.063240717723
100.058350612141
100.059395876565
100.059102336708
100.061298394692
100.06066950559
100.057513363779
100.057110185839
100.055958240824
100.053560990105
100.050374691083
100.050076775694
100.047443885517
100.047659270668
100.051233208106
100.052504502636
100.055873868579
100.046887110845
100.050734199475
100.051936249053
100.050003191459
100.0548776697
100.053877870308
100.04708916892
100.04770551799
100.046415134465
100.043042812155
100.037087196608
100.037001815198
100.033380869507
100.033666611966
100.038779519911
100.040059335445
100.063553011891
100.067934547136
100.073101007
100.081929415407
100.073977868337
100.077122978492
100.075264633392
100.069381781161
100.074818310171
100.066098088358
100.061338310537
100.058887970941
100.047177642837
100.085614122071
100.107724145313
100.108966381122
100.088769030935
100.047944918468
100.047207122455
100.150508025873
100.236771467935
100.174827525198
100.175967291226
100.17114806544
100.160772073398
100.152128627095
100.198945454073
100.238237435961
100.146618703249
100.156491483254
100.218927113328
100.173936458961
100.17217446594
100.160295215903
100.157773898917
100.165234181902
100.163051475556
100.20603624969
100.144889690678
100.137143220812
100.189999314991
100.145791930753
100.155981918255
100.168077546497
100.259841850329
100.27308858181
100.27401186408
100.262348109649
100.272741267096
100.279987217041
100.293967043659
100.330311744033
100.345781097167
100.246681217955
100.283201824482
100.376434719146
100.321005237689
100.311314246078
100.297998878184
100.317874618837
100.262305397048
100.259254699516
100.31206267719
100.289419974219
100.297307581344
100.306408332174
100.331290705154
100.317916342141
100.283959033388
100.272711478033
100.268193259847
100.348686777108
100.387233044465
100.357998072452
100.358824392138
100.389276085808
100.374492040577
100.352228839774
100.445509557404
100.471444919711
100.443414618403
100.462418482594
100.466253348934
100.425868481116
100.378317286174
100.419348518245
100.368645649991
100.458313607368
100.481429662678
100.464851435417
100.476155033188
100.497957574239
100.465013889546
100.410007100899
100.434373912275
100.468495055557
100.417610662571
100.438909135472
100.439695561459
100.400136994051
100.433550175385
100.411614465183
100.344649580044
100.342418498408
100.408046797693
100.427266464888
100.39163544513
100.429765792814
100.42639874654
100.40178311744
100.446586308758
100.417463148849
100.396048353315
100.410542047493
100.371480092808
100.368685648319
100.421869847757
100.460470280612
100.44231136993
100.455604337284
100.481355181334
100.481111039253
100.456239877505
100.430070390596
100.429913219632
100.48875060244
100.509451959103
100.505350668275
100.50521680583
100.505479339584
100.496451054349
100.484146300257
100.513667232708
100.51647776746
100.514891850415
100.510730971526
100.506057234307
100.501790755875
100.492589201352
100.492167765891
100.495856657569
100.502939666257
100.490477088308
100.508176565801
100.506414435077
100.503425234987
100.502388837526
100.503493539273
100.503979247409
100.50405806595
100.504115042586
100.500157358124
100.490332542
100.497136989178
100.503068353139
100.480295261759
100.481591878211
100.473587020729
100.479938989882
100.457990073371
100.45606881103
100.477876589819
100.469801319393
100.476398973884
100.475881691952
100.496659413639
100.491257773767
100.47703580097
100.455117526345
100.470683213595
100.457984622804
100.463130239345
100.491266269539
100.492127154905
100.496390245855
100.506215222982
100.515838373624
100.514686729784
100.521161115596
100.521814130036
100.514482763293
100.513736977961
100.513962109801
100.519105407915
100.516327313656
100.517591977839
100.517076766533
100.520128138881
100.514278780207
100.516896154024
100.520004967288
100.519125828037
100.519632768466
100.519580799955
100.514289322037
100.516866870188
100.515724496818
100.512812423016
100.505755804148
100.506570674976
100.504833468389
100.503061283568
100.499073673204
100.508909797525
100.508169303996
100.504289340473
100.50300500458
100.502360180726
100.503280978076
100.502117915486
100.500212443323
100.501140255535
100.499920623896
100.497962643544
100.499935490718
100.502142738603
100.502048937589
100.503055084058
100.504057981248
100.503408983028
100.50374294512
100.50248966102
100.50570791312
100.50230125767
100.502034809347
100.504095604739
100.495850913428
100.497530794762
100.494121972662
100.499798258391
100.497822726682
100.485931283012
100.485526356107
100.498023550417
100.499996311034
100.493010858261
100.498980580418
100.497408315588
100.504472866068
100.506088246213
100.504150857632
100.508782898705
100.504970590389
100.506277535456
100.505422351819
100.503689986385
100.495140473727
100.499565512619
100.505857788475
100.506618314346
100.511030616866
100.515860160156
100.514040313239
100.520276242675
100.51831152171
100.518001387792
100.517948885319
100.518768624195
100.518772268317
100.518137121468
100.517946653438
100.518263022241
100.518170763223
100.517627211059
100.518554037584
100.518946552204
100.519200357355
100.518249777406
100.519365104112
100.518604843751
100.519073777502
100.516394550346
100.517060009856
100.516547064263
100.514261562916
100.515688642439
100.51282840924
100.507195630705
100.509539509453
100.509922008612
100.513532446795
100.5189437008
100.516955002449
100.514792394082
100.5129636755
100.509482500904
100.50449528784
100.500780853519
100.497479792485
100.494996332185
100.496677785705
100.505680934376
100.520905159933
100.55721093038
100.569541772538
100.511065663553
100.469024808683
100.431185093851
100.387266191921
100.362106473823
100.379264524977
100.376671286513
100.374883581767
100.375339364882
100.376178364466
100.377014912865
100.378106638416
100.379592497824
100.381341153489
100.383098277791
100.384627151894
100.385765424433
100.38639064936
100.385287176774
100.383974603168
100.382495199052
100.380877447025
100.379223657618
100.377694305953
100.376407800551
100.375398460004
100.374599926502
100.373926461548
100.373255400859
100.372446120307
100.371395359172
100.370164265267
100.369138938332
100.368912865547
100.370111575946
100.372775677749
100.374708165649
100.374942378626
100.374462670175
100.374598350837
100.37469552347
100.374821324555
100.374960956805
100.375040174741
100.375168753798
100.375271145361
100.375444673162
100.375620648525
100.375819664415
100.376139328179
100.376284046722
100.376109113869
100.375804039299
100.375556981281
100.375778384994
100.376244311612
100.376121188822
100.376164260608
100.376185582097
100.375896285931
100.37568875967
100.375629959221
100.37555447156
100.375859417254
100.375611926999
100.375424076724
100.37511625338
100.375251022413
100.375089518884
100.375013995229
100.374889147519
100.374791917199
100.374721429032
100.374574390096
100.374473094969
100.374370110459
100.374282118306
100.374330592197
100.374395206691
100.374478554857
100.374630292389
100.374662142107
100.374755921088
100.374799737257
100.374990552917
100.374960019388
100.374971640431
100.375070277628
100.375183872263
100.375312254515
100.375425878847
100.375640237851
100.375729290362
100.37612958932
100.376365532903
100.376436094294
100.376603522786
100.376486493199
100.37625590639
100.376292855048
100.376076465492
100.375388567192
100.374435479435
100.374482191824
100.374992697021
100.375260398513
100.375966638675
100.375778730278
100.3752811189
100.375165911313
100.37548414893
100.375523075014
100.375779095436
100.375993655174
100.37566064302
100.375527139629
100.375131319386
100.374857097178
100.374721222144
100.374590944559
100.374714670279
100.37479438318
100.374757565901
100.37489821553
100.375022773602
100.375100318559
100.375172737649
100.375318931557
100.375457069833
100.375549374259
100.375779532447
100.37596521792
100.37635596464
100.3765796679
100.376680429815
100.376761984469
100.376792001714
100.376932896135
100.376517603715
100.376208906237
100.375698847585
100.375835460254
100.375926602004
100.37610668291
100.376492066216
100.376758890868
100.37688501184
100.376890216158
100.376735382156
100.376299066035
100.375822758167
100.375859567675
100.376236153855
100.37627729418
100.376664470675
100.376479291419
100.376550735725
100.376328954969
100.375840593754
100.375411596456
100.375291309091
100.375405766229
100.375574934051
100.37568582838
100.375832050636
100.376066918456
100.376267864563
100.376682416538
100.376940239392
100.377007602501
100.376982879317
100.376818421454
100.376316597631
100.375819759265
100.374970994596
100.374235938945
100.373693270488
100.373948810348
100.374264960107
100.374363170059
100.374357872177
100.373096683202
100.372260988787
100.371638018936
100.371873961699
100.372290772648
100.372302137758
100.372468942097
100.373143932695
100.373646472813
100.373330957004
100.373069848331
100.372502812665
100.373091253964
100.37260025947
100.374141300084
100.374487182468
100.374648228102
100.374834763426
100.374780994997
100.374914618668
100.37503562757
100.375247597665
100.375374127808
100.375440862319
100.375576936883
100.375720386322
100.375857065903
100.375952607717
100.376185650481
100.376417426696
100.376825698709
100.377054176626
100.377083720514
100.37696178257
100.376722172244
100.376310345533
100.375784178866
100.37503256113
100.374342232369
100.373702920213
100.372840626332
100.372480681564
100.372236178689
100.372022534399
100.371845640092
100.371054479752
100.370817249821
100.370506673895
100.370203068949
100.370049864544
100.370583799977
100.370776316506
100.370186863535
100.370288069764
100.370735978364
100.370745050272
100.370890348401
100.372278252229
100.374077558218
100.37470027505
100.374853021514
100.375073405901
100.37500319583
100.37515491914
100.375299334732
100.375492064564
100.375619669415
100.375728425017
100.375866869021
100.375979129083
100.376044614022
100.37628932468
100.376559422803
100.376955578917
100.377146238295
100.377226520028
100.376942948412
100.376827938656
100.376998583906
100.377047910307
100.377150706979
100.377111083467
100.376815352546
100.376377150313
100.376482695957
100.376707577848
100.3770830192
100.377231076079
100.377314011264
100.377057674119
100.376796633105
100.376207784905
100.375775409093
100.375785891425
100.375098857936
100.374459777138
100.373844194805
100.373042582734
100.372726795864
100.372461718235
100.37235497933
100.372435343227
100.372108043097
100.371752826208
100.371265798373
100.371612541694
100.372081301769
100.372192129342
100.37180691573
100.371312840324
100.371276412193
100.370925586628
100.371193527414
100.371461184695
100.371141498112
100.370408401757
100.370676873382
100.370496221208
100.36988246944
100.370208380206
100.369439160292
100.368865049125
100.368306331839
100.367849674669
100.368400003735
100.368953682805
100.369395208779
100.368986861977
100.3687076587
100.368709038618
100.367461149372
100.367906807657
100.367253787839
100.366089194966
100.363380656817
100.363342077953
100.364527498915
100.366425862049
100.368545351105
100.366028014733
100.364918223306
100.364477960186
100.358977113751
100.355951156788
100.363257289434
100.359937073869
100.361294940257
100.35839660663
100.358671317748
100.354766772277
100.357156008986
100.36055493285
100.360719009524
100.362527259774
100.363848901308
100.365597958077
100.367567712995
100.368966015582
100.367963108597
100.369253697083
100.36717286369
100.374410743619
100.37338524226
100.372241866107
100.370658003248
100.36809112993
100.368049098715
100.372645093277
100.37409953802
100.368710274955
100.364900920584
100.365692316016
100.348850550864
100.354320729482
100.349245064327
100.354331567544
100.353816760295
100.371702019663
100.372253800335
100.373983576669
100.373886112443
100.373986391534
100.374011931969
100.374142614574
100.374155790261
100.374234010502
100.374250352646
100.374419544345
100.374474849268
100.374722660161
100.374838183425
100.374983226474
100.37501611698
100.374905919476
100.37495974009
100.374842918235
100.374754943568
100.374613430215
100.374345874472
100.37433052441
100.374218154737
100.374178842373
100.374093683384
100.374092041666
100.373941702941
100.373886582461
100.373818384203
100.373674094048
100.373858973656
100.373739412195
100.373832314055
100.373847045337
100.373898490724
100.373969909622
100.374003582181
100.374068874098
100.374099905036
100.374170749395
100.374299695921
100.374435803863
100.374562202667
100.374623507486
100.374601478959
100.374452683699
100.37435247391
100.374488856632
100.374770048861
100.374567875887
100.37456243036
100.374713068261
100.374483884719
100.374582646763
100.374514290317
100.374361894993
100.374259501252
100.374030306915
100.374087113138
100.374072898184
100.374037945234
100.373939042867
100.373937290485
100.37395459143
100.373879199244
100.373871320561
100.373789139329
100.373780365474
100.373662906097
100.373597375854
100.373742875323
100.373760069933
100.373764781626
100.373852492856
100.37385392824
100.373911792742
100.373919713531
100.374001222
100.373977103915
100.373868981503
100.374102670884
100.37420335018
100.374369909313
100.374323749494
100.373968729491
100.374426508931
100.374050259124
100.374376435025
100.374191602467
100.374143096054
100.37406145415
100.373867173643
100.373866413633
100.373841541498
100.373877414547
100.37385089243
100.373806512341
100.373788000851
100.373744326307
100.373707951265
100.37367002164
100.373636329913
100.373347923933
100.373940473963
100.373642935714
100.373710293388
100.373702308149
100.373692456233
100.373773771373
100.373746257879
100.373803225613
100.373785456465
100.37378023095
100.373822156846
100.373856214582
100.374009588648
100.374086870605
100.373964114555
100.374110400662
100.373977833869
100.373815422345
100.373750862842
100.373931375939
100.373991296044
100.374128842321
100.373765751853
100.374253330948
100.373880502517
100.374108982
100.374020446952
100.373905415556
100.373744396671
100.37376694316
100.373784726149
100.373770413917
100.373779485807
100.373730259861
100.373752818666
100.373671171779
100.373635476824
100.373650070067
100.373491334539
100.373566813301
100.373668848904
100.373659187484
100.373634087727
100.373701791039
100.373684037436
100.373745525887
100.373708802977
100.373714775591
100.373726458593
100.373671873166
100.373711511607
100.373610474493
100.373589683933
100.373561572391
100.3736069986
100.37330066707
100.37388753307
100.373525950018
100.373611909266
100.37361072767
100.373590973281
100.373663607105
100.37365491029
100.373695417315
100.373658372409
100.373719804017
100.373672350649
100.373869462724
100.373973851863
100.374195684216
100.374079071553
100.373870027936
100.374146608173
100.374215733357
100.374090253157
100.37410013593
100.374143008218
100.37391755007
100.373712809027
100.373729306349
100.373666338043
100.373681766818
100.373642465411
100.373652158848
100.373593466148
100.373572669849
100.373609225965
100.37340130364
100.373576232641
100.373578854656
100.373630443761
100.373594954551
100.373632143073
100.373623630158
100.373643681955
100.373605475187
100.373665347496
100.373633549311
100.373911518694
100.374069509383
100.374291047248
100.374197642817
100.374273356777
100.374083450629
100.374043529128
100.374106729004
100.373912006994
100.373725540921
100.373699270958
100.373697005457
100.37370117039
100.373664412222
100.373711249817
100.373638395334
100.373661939331
100.373624352033
100.373737594893
100.373458079996
100.373786536942
100.373703351057
100.37378637263
100.373707031742
100.373705200267
100.373763365257
100.373711973052
100.373733666877
100.373711493364
100.373755764152
100.37375304655
100.373908190859
100.373983348074
100.374191796831
100.373991192932
100.374279781869
100.373932301414
100.374145532878
100.374049561775
100.37392528881
100.373811430761
100.373748659208
100.37377475227
100.373768748784
100.373782519889
100.373759256579
100.373722402406
100.373750988825
100.373776689124
100.373698927291
100.373806852482
100.373738866314
100.373915129378
100.373605834395
100.373964249726
100.373869511007
100.373940726624
100.373829061617
100.373813721768
100.373768411864
100.373846974271
100.373789650951
100.373842757266
100.37383087273
100.373865221604
100.373861650841
100.374089295317
100.374219499049
100.374468478182
100.374093375939
100.374510208982
100.374257647483
100.374146602187
100.373900943043
100.373915770081
100.374273350085
100.374467052619
100.374867865657
100.374628046621
100.374847634652
100.374802848921
100.374715160041
100.374701967754
100.374450762111
100.374109612699
100.373988534635
100.373958393508
100.373877675931
100.373814913186
100.373881332909
100.373833282514
100.373861590908
100.373895176536
100.373855432612
100.373844431142
100.373941590909
100.37387291683
100.374032982243
100.374005178255
100.373983537018
100.373936832237
100.373965881031
100.373969977062
100.373965467001
100.374010680392
100.373989395625
100.374037031894
100.374239501396
100.374628315322
100.37497439747
100.374939755289
100.374830678503
100.374642782613
100.374260156567
100.374208154279
100.374042780928
100.374147194327
100.374144286675
100.374087773316
100.374146903521
100.374090896973
100.3741019606
100.374094684482
100.37418025857
100.374040176681
100.374243013914
100.374267141156
100.374273752461
100.374248211295
100.374266988013
100.374287960994
100.374266004313
100.374319159517
100.374287536615
100.37435316608
100.374424835302
100.374771726291
100.374946283093
100.375106003756
100.374929747415
100.375062438193
100.374869895731
100.374747563639
100.374405883181
100.374599523431
100.374894112832
100.374978177358
100.37523980692
100.374995496697
100.375076868744
100.374933672395
100.37485549306
100.374551892684
100.374521753616
100.374312983967
100.374467794328
100.374478413504
100.374315415113
100.374435038943
100.374482041575
100.374441990701
100.374445456572
100.374428387225
100.374493476725
100.374368766541
100.374620110385
100.374612641518
100.374624315695
100.374600211725
100.374629958321
100.374653207582
100.374622288999
100.374687202928
100.374662254916
100.374683847024
100.374757857478
100.375013436778
100.375062950198
100.37530772235
100.375021709993
100.37524483433
100.375076285923
100.374974922593
100.374762676788
100.374919460883
100.375091201099
100.375219636606
100.375452700183
100.375441057289
100.375090460578
100.375627457428
100.375540125643
100.375482936819
100.375492646785
100.375483699953
100.375286114638
100.375083671179
100.374985295213
100.374843600665
100.37469128217
100.374779134183
100.374789465234
100.374661483861
100.374785888017
100.374840449387
100.374781581788
100.374778235397
100.374744192121
100.37481723433
100.374694031815
100.374895921501
100.374941732121
100.374956637284
100.374934108028
100.374977891875
100.375020369237
100.374951419484
100.374970883013
100.374956007581
100.374975017483
100.375112589018
100.375231203133
100.375085790107
100.375227527635
100.375426998854
100.375359931706
100.375603840505
100.375872282262
100.375882233807
100.375916599649
100.375711407255
100.376021543442
100.376345440445
100.376417394281
100.376456347649
100.376164289086
100.375689879012
100.375548319489
100.375384854881
100.375205884176
100.375275746315
100.375054421026
100.375153427698
100.375223944046
100.375135036382
100.375135911904
100.375126752374
100.375185209717
100.375171724336
100.375265162087
100.375117230755
100.37503333321
100.374768441815
100.374943008453
100.374470293853
100.37492081379
100.374263865715
100.37481389539
100.374738595572
100.3745227617
100.374517951515
100.3742008016
100.374365055626
100.373968867954
100.374267905011
100.374294530294
100.373953049447
100.374246530421
100.374404067285
100.374426028239
100.374186973312
100.374449219188
100.374044624623
100.374137539306
100.374189320105
100.374282879879
100.374424501972
100.37445410891
100.374560089328
100.374628839374
100.374775449855
100.374837226556
100.375009660217
100.37512062022
100.375173401409
100.375131563018
100.374925125955
100.374769255307
100.374579971368
100.374801444627
100.374929765065
100.375232601251
100.375146399663
100.375191935316
100.375276159709
100.375039183092
100.374862166131
100.374430336023
100.374288465703
100.374677273237
100.374616738691
100.374971104903
100.374765849084
100.374573355755
100.374213642437
100.373541323875
100.37256560372
100.373467492371
100.373599271375
100.373691079301
100.374220131939
100.374220541291
100.374248692635
100.374051897566
100.374128888604
100.37431136765
100.37413826338
100.373843030015
100.373696273779
100.373810140646
100.373862887136
100.373941975258
100.374031620013
100.374104900428
100.37419773246
100.37420337678
100.374267882607
100.374326773192
100.374428634106
100.374460016503
100.37438310211
100.374369382481
100.374449692887
100.374515179103
100.374671680352
100.374734991282
100.374887106265
100.374990070217
100.375255408167
100.37540966733
100.375254914021
100.375106794566
100.374787784015
100.3748981131
100.374964532883
100.375107134078
100.375193408479
100.374986929338
100.374931378503
100.375047103205
100.375153605918
100.375286788936
100.37542303412
100.375570913417
100.375716902577
100.375764188451
100.375891185704
100.375992923545
100.376133491852
100.376299044292
100.376417193661
100.376607400197
100.376906830773
100.377233165889
100.37733538511
100.377402107434
100.377132650368
100.376888093248
100.376341956439
100.375740952246
100.375360874143
100.375578633926
100.374993134128
100.374503431564
100.373994295065
100.373226995766
100.372952054505
100.372701889749
100.37260047524
100.372704869868
100.372595718723
100.372957250191
100.372667473801
100.372254578481
100.37183394142
100.371657751745
100.372146806145