/*--------------------------------*- C++ -*----------------------------------*\
| =========                 |                                                 |
| \\      /  F ield         | OpenFOAM: The Open Source CFD Toolbox           |
|  \\    /   O peration     | Version:  v1612+                                |
|   \\  /    A nd           | Web:      www.OpenFOAM.com                      |
|    \\/     M anipulation  |                                                 |
\*---------------------------------------------------------------------------*/
FoamFile
{
    version     2.0;
    format      ascii;
    class       volScalarField;
    location    "1.4";
    object      p;
}
// * * * * * * * * * * * * * * * * * * * * * * * * * * * * * * * * * * * * * //

dimensions      [0 2 -2 0 0 0 0];

internalField   nonuniform List<scalar> 
81489
(
99.9993656547134
100.004189687315
99.9974005437763
100.001669145372
100.006984314776
100.003658452394
100.003280921091
100.00333322315
100.003503491746
100.003119623888
100.003724939406
100.006811349737
100.01065584089
100.009490487322
100.00769275023
100.008697410352
100.005845012729
100.003461699274
100.003479853453
100.005858784048
100.008671556576
100.007649135054
100.009456669605
100.010610783911
100.006789813264
100.003694780023
100.00308913617
100.003478864469
100.003306343344
100.003250065477
100.003625193583
100.006964413542
100.01077531888
100.009622514566
100.007683882805
100.008695687583
100.00588391583
100.003523878595
100.003506990978
100.005870546715
100.008718992047
100.007730599354
100.00966141472
100.010813982565
100.003972254147
100.003260341444
99.9989832409419
99.9994944504252
100.000851313869
100.001270433374
100.001298231661
100.000874189735
99.9994756690868
99.9989485010902
100.003230744885
100.003944360344
100.001667162657
100.000600626445
100.001301211212
100.001539383178
100.001493015032
100.001167042853
100.000828285435
100.001803671414
100.003936253737
100.003209858543
99.9989258056022
99.9994362927485
100.000832711883
100.001257536032
100.001227648953
100.000802446881
99.9994588874508
99.9989634337372
100.003240966948
100.003962008784
100.001805974464
100.000841465922
100.001183056576
100.001510193101
100.001557131987
100.001316293451
100.000615631603
99.9973774227721
99.9995097256755
99.9994182825697
99.988113898766
99.9905083408995
99.9906418339114
100.000951524086
99.9955726749831
99.9936578963956
99.9960784861242
99.9982348887196
99.998265128756
99.9960815100399
99.9936090232266
99.995532405968
100.000922053091
100.000931729709
99.9974051704533
99.9973668685058
99.9995046327458
99.9983496056491
99.9983262251877
99.9995545595075
99.9974508222476
99.997292424977
100.00088502539
100.000933437181
99.9955211718612
99.9935638827432
99.9960349939687
99.9982217155174
99.9981936289086
99.9960227092002
99.9936077624843
99.995559403976
100.000962265371
100.000918969584
99.9972902315686
99.9974630122923
99.9995609083841
99.9983431700241
99.9983673990958
99.9954292711609
99.9953811599731
99.9881582038272
99.9583578572691
99.9582769286153
99.9526779697775
99.9536502862214
99.9588155335795
99.9891983168657
99.9962286147452
99.9955632774428
99.9955592353608
99.9961548819713
99.998786721621
99.9906412590671
99.9904713964996
100.004202043081
99.999412144097
99.9954031274779
99.9953574492249
99.9991359021228
100.003783824291
99.9904638622406
99.9906473213508
99.9891449993222
99.9891825699987
99.9906513318214
99.9905011707281
99.9528154092097
99.9525941747522
99.9540993520693
99.9540855588449
99.9525694150537
99.9530961452083
99.9539215305794
99.9539429773933
99.9588649799454
99.9891626893363
99.9832623073307
99.9665526800737
99.9601206503339
99.9599582604135
99.9574997172639
99.9585562325711
99.9531151899589
99.9537508314056
99.9527332869885
99.958304177117
99.988087135132
99.9881313769683
99.9583857320265
99.9528683975509
99.9538326501704
99.9589112607595
99.9588622670848
99.9537345625274
99.953121431273
99.9585797160339
99.9584465523993
99.9577182373509
99.9577236858153
99.9584634000043
99.9585790118367
99.9575048495632
99.9588179169224
99.9588148388063
99.959443996588
99.9594108378722
99.9584576732977
99.9525908234024
99.9541128060993
99.9541287453018
99.9526185526835
99.953140374902
99.9539860256217
99.9539639071253
99.9575314144123
99.9588473788024
99.959476373623
99.9594196937628
99.9589048361287
99.9589015849382
99.9594199161344
99.9594547479824
99.9573582095919
99.9571729225712
99.9571760215327
99.9573636766629
99.9573172443411
99.9571949901186
99.9588988040961
99.9577303004936
99.9577247535579
99.9584421701651
99.9585555170247
99.9575266156903
99.9588427805015
99.9572254885714
99.9572257718044
99.9574107864722
99.9573485386478
99.9572117192386
99.9571978919558
99.9573241407603
99.9549386639487
99.9549585600505
99.954880292707
99.9548837616738
99.954965231924
99.9549429675736
99.9549230744096
99.9549435007746
99.9572083524135
99.9589014220533
99.9594135951592
99.9594579236273
99.9574018863099
99.9550330474559
99.9549691217541
99.9549692430089
99.9550373548679
99.9549975123147
99.9549444101936
99.9549198483697
99.9529758889107
99.9529771171407
99.9529729465194
99.9529032153417
99.9529076092814
99.9529811717031
99.952996661363
99.9529864494091
99.953015367794
99.9530682250907
99.9549929152011
99.9573458528747
99.9579116502966
99.9552920429689
99.9533414981787
99.9530960361086
99.9530488119458
99.9530519639092
99.9531036817207
99.9530764774989
99.9530110120069
99.9512395109178
99.9511846586976
99.95116537225
99.9511376932143
99.9510776839911
99.9510869229538
99.9511502872577
99.9511921188359
99.9512081002911
99.9512579516334
99.9513153773793
99.9513432986031
99.9513252950584
99.9513321162833
99.9513531082504
99.95131995074
99.9494298676809
99.9493097188156
99.9492200143569
99.9491662163841
99.9491193452165
99.9490563795529
99.9490780504315
99.9491564603684
99.9492190503431
99.9492698299244
99.9493583552094
99.9494410099313
99.9494784527437
99.949483733295
99.9494986269307
99.9494777361222
99.9472741793079
99.9471719514523
99.9469407037595
99.9467927355298
99.9467058535216
99.946626788693
99.9465236464823
99.946569204207
99.9467238014326
99.9468152036083
99.9468938127587
99.9470445523315
99.9471931623956
99.9472362407492
99.9472475101443
99.947293296695
99.9442600630977
99.9442454289367
99.9440484597584
99.9436729400787
99.9433843588124
99.9432357660397
99.9431049239906
99.9429683515923
99.9430624696241
99.9432934778617
99.9434576016836
99.9435708656472
99.9438387977197
99.9440730771556
99.944119116924
99.9441591896964
99.9394655209965
99.9395836720478
99.9393215355787
99.9388343544261
99.9385402977182
99.9380774300741
99.9376399742175
99.9373522446596
99.937545079405
99.9376881752925
99.9376280764137
99.9380009384157
99.9384927773224
99.9389547614149
99.93903355923
99.9391181138454
99.9251306414726
99.9267295476213
99.9265059535641
99.9248705198705
99.924165571696
99.9254042461509
99.9246051499349
99.9223422205369
99.9218029798947
99.9231969530205
99.9232857096842
99.9220547503738
99.9227848204931
99.9247719493893
99.9255614359573
99.9247168189073
99.9392839791668
99.9404512397971
99.9373605344736
99.9368706150919
99.9396973741796
99.9385615449783
99.9342453592827
99.9329188375755
99.9353011573762
99.9349019437762
99.9314086883082
99.9315764619784
99.9353073518996
99.9359204843709
99.9335753519398
99.9350061388572
99.9946173753291
100.048985755056
100.006090846485
100.006899441507
100.05073259455
99.9969531193446
99.9957555312482
100.049850153855
100.005671511027
100.004940425223
100.047823834519
100.07902580043
100.077616770798
100.044240418962
99.9917214572591
99.993302077623
100.117278836039
100.216838882651
100.17376758488
100.172920504033
100.144212797319
100.136782196666
100.134185147781
99.9982548583373
100.040190646259
100.070047875359
99.9868950110121
99.9870709021941
100.04075167506
99.9989971329584
100.001323289392
100.045879432467
99.9931255280161
100.079713629022
100.080696340937
100.17535654313
100.14955086399
100.14447287696
100.143639554213
100.149943385277
100.177835954318
100.178056809424
100.149863615638
100.14318457392
100.143511130607
100.148267682783
100.24132503088
100.27895205891
100.256601812127
100.255555883232
100.276187050215
100.263115115709
100.234872790445
100.331233893002
100.367750921648
100.340364938688
100.328231539507
100.327136536002
100.332194277511
100.266951256234
100.229895224123
100.262270891846
100.326966677866
100.360765056189
100.383856736939
100.392674213962
100.395841301245
100.400037876895
100.402066967447
100.402520798491
100.402530456053
100.402446805388
100.402600986291
100.40328043175
100.404173983602
100.404949496751
100.405679606006
100.406117810796
100.406268764339
100.406537877577
100.407330254791
100.40925447975
100.413795009645
100.423221281614
100.442145865491
100.467813594252
100.507209292238
100.501241327242
100.435404428931
100.376209201709
100.316059657815
100.28237469349
100.304157078896
100.303677550244
100.301192477246
100.301420659369
100.302517248801
100.303635317868
100.304907850779
100.306564998616
100.308570113081
100.310709381562
100.312694199139
100.314231201356
100.315052985506
100.314055863985
100.312735787035
100.311134308574
100.309368818661
100.307513584977
100.305588772136
100.303677684722
100.301931815155
100.300481385069
100.299369805548
100.298566260378
100.298009121281
100.297628966229
100.297370117338
100.297190902682
100.297063280794
100.296987369015
100.296982879168
100.297092104658
100.297396298492
100.298000741854
100.299214425219
100.300814815105
100.301899016264
100.302192094757
100.302115857313
100.30216621929
100.302121601515
100.302225237312
100.302156611858
100.302177376325
100.302130137952
100.302061221338
100.301871538131
100.301640821833
100.301643731674
100.301665748661
100.301996680542
100.301957230235
100.301897283721
100.302062205342
100.302126124077
100.302160328743
100.302151207114
100.302208283667
100.302116337175
100.302145288086
100.302101826661
100.302139289122
100.301909747294
100.301401567392
100.30203445161
100.302148359553
100.302114778165
100.302141144654
100.30212346276
100.302200028108
100.302151598342
100.302150994937
100.302122538177
100.302053791552
100.302084814189
100.301936395666
100.302036329823
100.302213396259
100.302192262568
100.302195904334
100.302130388898
100.302151258228
100.302157718039
100.302199353643
100.302133702463
100.302142418003
100.302115358255
100.302153186869
100.301980235213
100.301762852716
100.302115851607
100.302167808838
100.302148272684
100.302158860021
100.302152403054
100.302201221124
100.302187890412
100.302176992678
100.302195875916
100.3021749237
100.302273988846
100.302319727668
100.302315584898
100.302048817344
100.301827797651
100.302092040903
100.302362504512
100.302291431985
100.302456643418
100.302454235127
100.30235704975
100.302220715712
100.302272189336
100.302228608283
100.302168518332
100.302171300945
100.302167061892
100.302206011017
100.302138124994
100.302250270292
100.301774249707
100.301116781982
100.301978960212
100.30221116386
100.302176090587
100.302216748247
100.302227460314
100.302198361294
100.302232634291
100.302285060343
100.302298841864
100.302286328334
100.302277724791
100.30244764095
100.302566169642
100.3025741656
100.302472685612
100.302603399213
100.30277834838
100.302700013855
100.302660745447
100.302532257018
100.302345426658
100.3023268186
100.302340578092
100.302299130651
100.302256800709
100.302227141539
100.302254016175
100.3022760668
100.302213430823
100.30226585525
100.301991136684
100.301763621396
100.302205587594
100.302316732549
100.302270874815
100.302321480039
100.302299394245
100.302347689333
100.302347915275
100.302393482445
100.302422087351
100.302459943572
100.302651680795
100.302833813415
100.302765290367
100.302844129627
100.302712764508
100.302492258142
100.302521474304
100.302762559699
100.302943396264
100.302995190464
100.302896449847
100.302714331307
100.302960655417
100.303032079773
100.303136518244
100.303180598595
100.303201603183
100.303106438447
100.303005326414
100.302827522711
100.302570237534
100.302559635428
100.302476199645
100.302430198702
100.30240549937
100.302431625938
100.302371980676
100.302332240166
100.302381149899
100.302159412855
100.302159010103
100.302390358756
100.302440502261
100.30240710058
100.302441037249
100.302529002445
100.30247726071
100.302532077335
100.302534521182
100.302561838567
100.302597614198
100.302633546673
100.302894592564
100.303075753108
100.303162010617
100.303142920923
100.303123409469
100.30298392661
100.302977180517
100.302770983418
100.302691866214
100.302632821493
100.30261482087
100.302569819284
100.302519730484
100.302556299067
100.302545022561
100.302568293338
100.302502077497
100.302299352903
100.302495853955
100.302534301414
100.302565800633
100.302631026214
100.302589395613
100.302595751619
100.302674219803
100.302735628247
100.302736040785
100.302801944726
100.303048903402
100.303179045264
100.303185018168
100.30310872834
100.302914794018
100.303149497035
100.303152845323
100.303310419773
100.303295717154
100.303200038145
100.303094147365
100.302899277269
100.302848708604
100.302745249384
100.302781528552
100.30275849828
100.302695121269
100.302710517707
100.302679728707
100.302634778679
100.302708302329
100.302716431273
100.302407097567
100.302515118866
100.302674726778
100.302553659893
100.302771852581
100.302689348931
100.302772146334
100.302727834584
100.302799338807
100.302841568156
100.302878294338
100.302960821487
100.302990134954
100.303159019898
100.303304213317
100.303260295391
100.303303787298
100.303176467719
100.303217426607
100.303350560757
100.303439019386
100.30339077676
100.303550448371
100.303616220769
100.303592566645
100.303468168171
100.303335654521
100.303115115093
100.303011468452
100.302957746351
100.302943848503
100.302884802787
100.302843274879
100.302928843997
100.302774039263
100.30284571609
100.302795265567
100.302798031412
100.302463389641
100.301767188981
100.300897344957
100.302004321577
100.301308934141
100.300522846749
100.299669723493
100.298919323754
100.300435405365
100.299778273188
100.298363809224
100.29757506279
100.297149461574
100.29695437901
100.296911550133
100.296958339299
100.297072312654
100.29724152724
100.297487906276
100.297846503499
100.298368615742
100.299132997509
100.300203141666
100.301622120467
100.303338051275
100.305205067261
100.30703906779
100.308768724302
100.310409705458
100.31191195986
100.313157393266
100.314110891968
100.31473630432
100.315693325868
100.316057281603
100.315423794312
100.314424885259
100.313085137999
100.311441788227
100.309616946461
100.307705727548
100.305751248114
100.303842570635
100.302101589816
100.300647941187
100.299516500753
100.298693541784
100.298113241525
100.297716871327
100.297447537925
100.2972600767
100.297122923534
100.297030016996
100.296994574441
100.297061039946
100.297305478068
100.297815332314
100.298882775097
100.300372438585
100.301773532679
100.302231685794
100.30217451749
100.302212486648
100.302204867109
100.302309544164
100.30219660037
100.302302423196
100.302263841139
100.302228113453
100.30203866568
100.30177608788
100.301651431563
100.301210559608
100.300636068004
100.299844234706
100.299941577701
100.300137091374
100.300372211731
100.300782836852
100.301324389093
100.301216384132
100.300932113992
100.300784772765
100.300696937127
100.301231808206
100.301301008702
100.301427812013
100.301670074629
100.301888522261
100.302092928148
100.301804196653
100.301504109402
100.301084383611
100.30054081368
100.299623851374
100.300123488935
100.300859251744
100.300870867568
100.301377293451
100.301565825846
100.30109585845
100.30147965512
100.301754270253
100.302205187351
100.302143973284
100.301966033601
100.302327438006
100.302465947296
100.302655660159
100.30234667069
100.302025685128
100.301619427553
100.300906074111
100.301333050862
100.301791114294
100.301894721059
100.302384789461
100.302645833211
100.302162632372
100.302331547374
100.302675884674
100.302754815345
100.303024514649
100.302922090494
100.302681563573
100.302786789371
100.302766213058
100.302607762904
100.302433620152
100.302464348842
100.302423403114
100.302389818929
100.302301782781
100.302240729241
100.302164894745
100.302152987653
100.302154098668
100.302145896952
100.302103465334
100.302105897229
100.302103710521
100.302117726198
100.30211852894
100.302207462448
100.302106306055
100.302209334403
100.302100699359
100.30225134961
100.302160681431
100.302219987993
100.302168928362
100.302110169578
100.301897613234
100.301803303596
100.301999564839
100.302146288097
100.302196400503
100.302264755639
100.302336291676
100.302358967651
100.3023859178
100.302370423438
100.302180310284
100.301955573113
100.301457944677
100.300930707863
100.300127290107
100.299937514837
100.298854647982
100.297723747124
100.295823596331
100.295848275763
100.297476462359
100.297696068992
100.298805002642
100.29885023946
100.297735679213
100.298210973388
100.298686668882
100.299230372535
100.297881687101
100.29681817636
100.295186721168
100.296620018736
100.297170367517
100.297905463061
100.298509156431
100.299030431665
100.299851693527
100.299986494404
100.299634845016
100.298890489714
100.298181779551
100.297952547386
100.298679561639
100.29821825093
100.299311666916
100.301507304211
100.301898780775
100.301897510579
100.301909592395
100.301811700223
100.301756246623
100.301671927982
100.301822972361
100.301595836007
100.301532935419
100.301718184008
100.30223936301
100.30220898451
100.302237631197
100.302277507374
100.302246483356
100.302355718441
100.30238164157
100.302383214456
100.302413912639
100.302408432953
100.302186396424
100.302013547518
100.301463343671
100.300939050732
100.300175957482
100.298884728494
100.29784739425
100.2958384686
100.29580425145
100.293236932505
100.290194042592
100.290551659765
100.291054859869
100.29210735068
100.293199716748
100.294191927002
100.291963894892
100.290002772744
100.291764555056
100.293315426625
100.294235034266
100.295511560336
100.295623406597
100.294793086553
100.293390037516
100.292814274049
100.294262621552
100.295675755086
100.2962012852
100.295867960078
100.297348083297
100.298726022959
100.301218785028
100.301723463633
100.301558013033
100.300780935382
100.301390987659
100.301206797769
100.30024826409
100.301107195247
100.301098493204
100.301523958112
100.301707375117
100.302240278705
100.302221942728
100.302251043587
100.302294303732
100.302259780089
100.302331203744
100.302241992212
100.302375097109
100.302340430754
100.302330304487
100.302109797694
100.301917546927
100.301392587631
100.3008428547
100.300071216494
100.298865328846
100.297805222613
100.295885862989
100.293449221798
100.290527429887
100.290222621651
100.286390067647
100.282207617155
100.259841994529
100.259309278456
100.262899139615
100.28014544565
100.282892149169
100.282102293807
100.286331014683
100.286871499053
100.287640629793
100.281548769587
100.285158253405
100.287737474745
100.284125873492
100.279515596976
100.271720531179
100.279119547188
100.284367195151
100.284244951566
100.287003158652
100.289177259256
100.287190619671
100.290244555041
100.291743046741
100.293188227133
100.294393321629
100.294303833156
100.292701877086
100.291379359062
100.290981206094
100.292422197978
100.293670777556
100.294159914799
100.294776021906
100.292732756831
100.293752052813
100.293996685419
100.294134617201
100.294139678769
100.294478539533
100.294046165908
100.292185852195
100.293186562652
100.291962162808
100.295110447034
100.293457703106
100.293340366662
100.293613408394
100.293532257942
100.293075268071
100.293841897797
100.29366896226
100.293302955391
100.292141651026
100.291240953369
100.293071408459
100.291496932246
100.291321499933
100.29165210694
100.292272528487
100.291293398635
100.290979835771
100.291251027482
100.298706172218
100.298071018365
100.29779355562
100.298084650854
100.299744330104
100.301658255161
100.300187938745
100.299767612575
100.300138204182
100.296800422707
100.298117091188
100.296881909863
100.294844816529
100.294326440005
100.296025418723
100.297627915917
100.296662536631
100.296525140517
100.29535368556
100.294545429001
100.295172626401
100.295280106346
100.298470095751
100.300072035138
100.301462094678
100.302019014188
100.302141170953
100.302124059211
100.301906898186
100.301838948081
100.301607972946
100.301458389897
100.301006499379
100.300386953622
100.299965976474
100.299930650449
100.300334774912
100.301744970093
100.302238877254
100.302206977524
100.302242503392
100.302242474058
100.30235588304
100.302321343434
100.302212169314
100.302304129803
100.302250729494
100.302207447588
100.301999119851
100.301756039707
100.301303256306
100.30073484111
100.299931114952
100.298926127917
100.297770125256
100.295986229962
100.29380855659
100.291122040933
100.287793583605
100.281718648847
100.280248961523
100.263868731247
100.245375452205
100.168192581656
100.183749026237
100.202080244822
100.205358674996
100.201642029358
100.196614777564
100.207202850629
100.203654847101
100.198260808604
100.20938291507
100.20574566967
100.198813245695
100.208620758715
100.205256875003
100.19810374081
100.207434877743
100.204095839611
100.19700692291
100.20605352689
100.202772512842
100.195897466827
100.203980725579
100.201788458923
100.202327922628
100.201744772518
100.200501361719
100.200533999977
100.200766716893
100.200290085376
100.200279983888
100.200620248135
100.200136730019
100.199825083116
100.200363199955
100.200289884527
100.2000076341
100.200071994612
100.200268856084
100.200458517634
100.200916829396
100.200589293995
100.200269936031
100.199990788207
100.200557903758
100.200409466991
100.200083083049
100.199420508685
100.199349562319
100.199975933038
100.200357345148
100.20051664493
100.199974037683
100.200254445053
100.200576143101
100.20090607518
100.200425457367
100.200252789677
100.200083537358
100.200025339682
100.200293029023
100.200366429685
100.199820754087
100.200130405028
100.200615423295
100.20027096988
100.20030436463
100.200723769319
100.200510682368
100.200503972014
100.201763571285
100.202351308503
100.201820373016
100.20402533882
100.203207418987
100.204298861833
100.202618742948
100.201816511108
100.20345347574
100.203147225522
100.201679391707
100.201294851221
100.2015794656
100.199118436187
100.199922323955
100.200388003736
100.200480173063
100.200553629471
100.200295736771
100.199827211156
100.2003094714
100.199515611122
100.199537455986
100.200569164607
100.199611749853
100.201352166451
100.200894652783
100.200795869296
100.200499543399
100.200600118579
100.200460870407
100.200430770398
100.200481300578
100.200935247974
100.200282068631
100.200180948978
100.200150259366
100.200300752225
100.200826735334
100.200383867273
100.200391226328
100.200439681881
100.200556724833
100.200153571875
100.20031015318
100.200778548224
100.201507087961
100.20008043861
100.200103858617
100.199921392867
100.199932615347
100.200135935919
100.200101673976
100.201539485125
100.200791059868
100.200318580341
100.20016410985
100.200563791657
100.200734508339
100.200923402224
100.200909969446
100.200738975703
100.200605273205
100.200647509444
100.200652172344
100.200596520927
100.200718230799
100.200383195688
100.20039904863
100.200451111618
100.200975025603
100.200136940046
100.200364329678
100.201845612388
100.201342912361
100.201538548019
100.201152226174
100.202300682218
100.201655494332
100.200858545794
100.201230242813
100.201502739693
100.201520018368
100.201242118576
100.200868856403
100.20165178496
100.202361159388
100.201144729634
100.20152245092
100.20134410778
100.201839623069
100.200874313763
100.202635184403
100.20192872693
100.201823472252
100.200777614153
100.200695929116
100.200035859298
100.201119118466
100.19976164491
100.200859203512
100.201446233948
100.200426912523
100.201668133123
100.201211469829
100.203123065204
100.20411815719
100.20105038175
100.19598441784
100.202836954578
100.206126540799
100.197103869659
100.204173636774
100.20751551496
100.198227199983
100.205341834977
100.20871849554
100.198936146257
100.205818781818
100.209523892931
100.198424781597
100.203788524144
100.207064811543
100.196587167185
100.201740981952
100.202236833656
100.199557704711
100.196713437352
100.196750344
100.202136051007
100.199540729204
100.197496530734
100.193390717438
100.198207505213
100.198263882095
100.193492541179
100.185785885188
100.185647976048
100.164216639097
100.237296448447
100.236464378742
100.164744671955
100.16819320919
100.183470293099
100.201582692274
100.204718426153
100.193611745092
100.188386276668
100.193559590605
100.191781714126
100.197704798858
100.206019098873
100.201903637306
100.20209639862
100.206261567389
100.203079810149
100.202405985728
100.205036510431
100.202290057654
100.201720582678
100.203429796388
100.201172146233
100.200871100059
100.20186942124
100.199975119058
100.203789126235
100.202848040045
100.201105438684
100.201666770636
100.203007447566
100.201662923944
100.201276483989
100.20038584531
100.202564180187
100.202642165903
100.200208263841
100.204172844538
100.204684366884
100.20169017453
100.205053926407
100.206342785688
100.202810223536
100.206080694988
100.207138502889
100.203404043642
100.201615332513
100.187349964336
100.177036846801
100.178093533309
100.186961513047
100.184454132697
100.183308585952
100.190776335183
100.178784772591
100.182283904485
100.176275297787
100.176212993315
100.183649004935
100.229086458841
100.25423872443
100.230704360785
100.159634079108
100.161061420778
100.18553719048
100.152362804207
100.137060019368
100.2054846372
100.247383389158
100.270374388839
100.279562698053
100.285464863874
100.2876969034
100.287432277729
100.282747315429
100.274968758424
100.261387819568
100.268175003928
100.276652838238
100.284058052117
100.287642547617
100.290825232291
100.293566425261
100.293651971248
100.29643253149
100.298096477785
100.297297893075
100.296957649775
100.296974316892
100.297258852439
100.300267182107
100.300673888131
100.301784665111
100.302226967001
100.302133895785
100.3022617447
100.302128484942
100.302139970936
100.30228956142
100.302199668629
100.302242458113
100.302188456657
100.302119996932
100.301927491998
100.301686412401
100.301277407324
100.300743822066
100.299966206603
100.299020071347
100.297912246151
100.296208295959
100.294425538605
100.292153043935
100.289435621344
100.285288192127
100.280949048601
100.274418390801
100.254610449695
100.229085347313
100.184133999843
100.177014396425
100.176769016059
100.182607264109
100.193871902512
100.188342799578
100.192923296037
100.191976984705
100.197992217593
100.205966981813
100.201920828369
100.202173834992
100.20626910684
100.203094986525
100.202438673716
100.205040592658
100.202274394246
100.201728636656
100.20344603535
100.201160430439
100.200869904786
100.201849159579
100.199971208032
100.201810305117
100.204127415457
100.20317079723
100.201705428197
100.201297735949
100.201595339734
100.201847222733
100.203495896119
100.203216429058
100.204326767931
100.202624861816
100.202236770884
100.202935694763
100.201320441012
100.200798164798
100.202148255972
100.203844840391
100.202872385873
100.201124916528
100.201693157485
100.200428341709
100.201460735854
100.200873205563
100.199757295473
100.201142921904
100.200033424546
100.200694007633
100.200779711756
100.201834206392
100.201946474688
100.202626250747
100.200898523998
100.200214529039
100.200863743785
100.200211303557
100.200787964841
100.200437181643
100.200855347531
100.201483062746
100.201032796521
100.200455002842
100.200559204355
100.20297045524
100.205066969823
100.202703057407
100.20184382997
100.201984568181
100.202398038762
100.20213326423
100.202657350672
100.202616179408
100.202142170866
100.202386993896
100.201972985588
100.202671163713
100.205073156089
100.202985651165
100.202973029907
100.203828752566
100.202877395352
100.201971333876
100.201903470342
100.20230424813
100.201373625065
100.200559542842
100.201975805571
100.201283887485
100.200094603029
100.202546669627
100.202877923409
100.202105874781
100.20189392416
100.20270611621
100.20431962185
100.203548224044
100.202502397205
100.203430188358
100.206273440118
100.205529211658
100.20225161157
100.202893513182
100.207943593697
100.208367924133
100.201422059725
100.189490958109
100.183364881379
100.177637274386
100.180789387234
100.181661539495
100.185407197001
100.186547794335
100.182663552951
100.174136571372
100.173981797187
100.17434765395
100.170549841045
100.159913063451
100.162420431592
100.178379756318
100.175610083351
100.177228324263
100.196025925334
100.198186134662
100.210513260984
100.228622372983
100.217554159921
100.222772887784
100.242593998821
100.261554601069
100.243996751423
100.264596563217
100.275926808957
100.280848348238
100.27436964785
100.273536514761
100.281166146718
100.28688443576
100.290526640678
100.293331431913
100.292742355113
100.292070137242
100.291570514885
100.297302888541
100.29798465743
100.298332283599
100.296092790911
100.296911674953
100.299004993863
100.296860409688
100.298851715271
100.299528160601
100.301229901799
100.301430060504
100.301170415715
100.301819120274
100.299158524472
100.300101055969
100.300068420044
100.299349871629
100.299935641239
100.299292200534
100.299313114408
100.299225767695
100.299246096787
100.299353439845
100.299687145726
100.299763295859
100.300013299722
100.300199085378
100.300098979817
100.29963347689
100.299055872928
100.298878108761
100.299192564125
100.299350447412
100.299437900598
100.299339709501
100.299351543593
100.299396872598
100.299296897223
100.29932363709
100.299178190074
100.299095907513
100.298452549258
100.298707412717
100.2988617515
100.299199482402
100.299513911819
100.299542294202
100.299257629824
100.299011784881
100.299308844258
100.299531994227
100.299470896201
100.299243756269
100.29964624237
100.299352909117
100.29921162608
100.300009194897
100.300663822447
100.30018875565
100.300197189709
100.299815557365
100.29936166893
100.29916771582
100.299814915854
100.300393585775
100.300364185125
100.299837584749
100.300118459416
100.300557874679
100.300499286941
100.300373898957
100.299874304475
100.299951246269
100.300495363068
100.300539122503
100.300719897474