/*--------------------------------*- C++ -*----------------------------------*\
| =========                 |                                                 |
| \\      /  F ield         | OpenFOAM: The Open Source CFD Toolbox           |
|  \\    /   O peration     | Version:  v1612+                                |
|   \\  /    A nd           | Web:      www.OpenFOAM.com                      |
|    \\/     M anipulation  |                                                 |
\*---------------------------------------------------------------------------*/
FoamFile
{
    version     2.0;
    format      ascii;
    class       volScalarField;
    location    "1.6";
    object      p;
}
// * * * * * * * * * * * * * * * * * * * * * * * * * * * * * * * * * * * * * //

dimensions      [0 2 -2 0 0 0 0];

internalField   nonuniform List<scalar> 
80571
(
100.260945726211
100.260529016497
100.259988494286
100.262878902548
100.267338159089
100.267365450695
100.267761899361
100.268460011253
100.266287817595
100.266342462843
100.266533704836
100.266416409378
100.266526250949
100.266702273374
100.266454072515
100.266307883083
100.268471617308
100.267745451999
100.267346081115
100.267321642831
100.268028682879
100.268574460482
100.266297220369
100.266610611534
100.266870292297
100.266182568626
100.266182751667
100.266871152604
100.266611736143
100.266298907125
100.268580319546
100.268033902544
100.267325394294
100.267349130689
100.267747465513
100.268472654155
100.266312597362
100.26645864129
100.266704671079
100.266530653258
100.266421252484
100.266538328921
100.266348970134
100.266293778573
100.268461873567
100.267763837334
100.267368299025
100.26734209101
100.268052262365
100.268602036112
100.266313248293
100.266627596328
100.266890485851
100.266202485171
100.266202719121
100.266890896886
100.266627285875
100.266311753207
100.268596815738
100.268047334715
100.26329397929
100.263564970855
100.262918966116
100.262625410342
100.262987605912
100.263262015775
100.263262223646
100.262987835197
100.262625125657
100.262919919622
100.263567619823
100.263296170701
100.262882169606
100.263262665297
100.263981204882
100.264379421841
100.264431191252
100.264559843598
100.264184235864
100.264556973991
100.264619548278
100.264212217672
100.264522075758
100.264416674661
100.264378930172
100.263970348798
100.26326356559
100.262867142568
100.263283014303
100.263550179962
100.262902653177
100.262607503576
100.262968903298
100.263243443895
100.263243397094
100.26296881014
100.262606918705
100.262901540769
100.263548618634
100.263281525811
100.262863993023
100.263260671671
100.263966941223
100.264375980379
100.264412314939
100.264515308042
100.264206706071
100.264613686448
100.264551031043
100.264179173807
100.264553520424
100.264426860876
100.264376552384
100.263977543712
100.263259372919
100.260488901456
100.261515161569
100.259836729929
100.260482660758
100.260801469713
100.260543517684
100.261099407872
100.259206071921
100.25918035486
100.26020178092
100.260202207632
100.259179689707
100.259204478436
100.261099859315
100.260548005545
100.260622934663
100.259991753343
100.260491088046
100.261518736025
100.2616848165
100.262923227185
100.263134226225
100.262023436389
100.261923814327
100.261873472984
100.261929576829
100.263050186779
100.262882168886
100.261670223083
100.261507167917
100.260483852829
100.259982016634
100.260606566087
100.260528129938
100.26108120214
100.259186327819
100.259161053183
100.260183499858
100.260183380944
100.259160730902
100.259186024706
100.261080294631
100.260525952234
100.260605138509
100.259978649731
100.260481737077
100.261503536248
100.261668135369
100.262877882912
100.263039122274
100.261921033591
100.261867193702
100.261917734607
100.262013967772
100.263122414802
100.262918713083
100.261684420501
100.259824482487
100.25176655165
100.252100525269
100.252156172351
100.252351280434
100.252617518677
100.261501936577
100.260176335556
100.260343951431
100.260343573559
100.260174627246
100.261504229294
100.260804198641
100.260480208332
100.260531155017
100.259842159109
100.259823113861
100.259942824196
100.264329817406
100.261586624442
100.261515862631
100.264241421085
100.259934718643
100.259818130699
100.259845827704
100.260445437204
100.260519696651
100.260938804991
100.261784283132
100.262526230261
100.262395743611
100.262933679505
100.265176983534
100.265208668824
100.263798191226
100.262404933331
100.261417214532
100.260804364488
100.260519090083
100.260518731899
100.260803282173
100.261415405658
100.262402422372
100.263795215465
100.265644939669
100.265869978887
100.264363407337
100.262713662017
100.26149967026
100.260659588023
100.260156405106
100.259908461579
100.259908826349
100.26015753767
100.260661447838
100.261502219869
100.262716818681
100.264367214885
100.265872562684
100.265647485921
100.263704135961
100.264010747922
100.263828744689
100.263367491382
100.263141025361
100.262569264732
100.263350267319
100.26308446248
100.261576785555
100.258510907145
100.253188649341
100.251773527234
100.252091908965
100.252155175501
100.252344558617
100.25260034846
100.25259927885
100.252341475528
100.252149960299
100.25208559364
100.251766548635
100.251837351813
100.251827852095
100.250657067305
100.250525836715
100.25060346992
100.250468234724
100.250539341583
100.250603393956
100.250604770242
100.252618912105
100.252354175678
100.252160888436
100.252106722398
100.251773097323
100.251832934807
100.251842718155
100.250664384565
100.250520728131
100.250588831034
100.250462654846
100.250524673636
100.250579799987
100.250578280854
100.250520336933
100.250455311238
100.250580583284
100.250509839305
100.250654118602
100.25109440998
100.251104814694
100.250992062533
100.251037477644
100.250923104145
100.250965762191
100.25096614111
100.250967679346
100.250971989526
100.250543428859
100.250475214554
100.250611472063
100.25053632858
100.250667152949
100.251121003431
100.251110955438
100.250984000257
100.251020122747
100.250896444741
100.250929317973
100.250923229958
100.250921321324
100.25092251539
100.250885812026
100.251006410403
100.250967385571
100.25070835781
100.250765557662
100.250777934897
100.250742901744
100.250820516402
100.250770577633
100.250792789564
100.25078564829
100.250788688921
100.250802090222
100.250785139024
100.250932863294
100.251050417004
100.251007840178
100.250765487931
100.25080239249
100.25079067432
100.250732546547
100.250795030702
100.250724543216
100.250733042035
100.250714375391
100.250710464756
100.250722647082
100.250708203091
100.250774212837
100.249738268314
100.24967845425
100.249736034744
100.249754656804
100.249733298832
100.249811257551
100.249794652354
100.249817216321
100.24983336406
100.249838533207
100.249831065402
100.249817265227
100.24984103412
100.250839784993
100.251003848947
100.249954476608
100.249767747679
100.249792607232
100.249775178412
100.249716021717
100.249771114133
100.249720237107
100.249720269046
100.249721246774
100.249714210791
100.249704579871
100.249693968482
100.248436311591
100.248479063835
100.248441742141
100.248530540242
100.248560043195
100.248531827512
100.248599131164
100.248594492564
100.248608598049
100.248650616123
100.248658689733
100.248631860219
100.248628256669
100.248644514193
100.248586286048
100.248619682746
100.248592351559
100.248500827958
100.248531571798
100.248478942724
100.248458023024
100.248473128302
100.248461765133
100.248432882672
100.247038357638
100.247089636755
100.247137408847
100.247101202155
100.247240675612
100.24728519119
100.247243578989
100.247336955815
100.247338787578
100.247316803078
100.247397964537
100.247409663698
100.247352345322
100.247391875829
100.247406764346
100.247328035851
100.247378488036
100.247338001009
100.247192029676
100.247221485653
100.247156483572
100.247082489177
100.247116002858
100.247097203808
100.245399709353
100.245239364603
100.245388362546
100.245452698445
100.245363222951
100.24563449906
100.24570219253
100.245598222843
100.245775392251
100.24578274935
100.245674042278
100.245863308638
100.245879594844
100.245729135578
100.245864550657
100.245881217814
100.245725644304
100.245846732125
100.245784922458
100.24550618065
100.245583943715
100.245496023039
100.245316051609
100.245428302924
100.242981802727
100.242936332913
100.242494044488
100.242847120038
100.242934749932
100.242725698943
100.243309861452
100.243420028849
100.243096628178
100.243443887951
100.243461897309
100.243163947163
100.24363662089
100.24366179682
100.24324189774
100.243578693824
100.243601939478
100.243291215755
100.243637858185
100.243535769708
100.242948926407
100.243138928913
100.243015317215
100.242621169046
100.23750127036
100.238643068475
100.238565696319
100.237286336113
100.238212567112
100.23832510528
100.237716758595
100.23920962192
100.239398286797
100.238320667296
100.239165189016
100.239192465767
100.238384005206
100.23966658463
100.239700448328
100.23849270909
100.239365036295
100.239402043717
100.238629834277
100.239745195645
100.239560345629
100.238070164662
100.238664811968
100.238495370258
100.231700473916
100.229555423294
100.232275299349
100.232145953285
100.229193275092
100.231234452564
100.231399541646
100.230033461279
100.233272607591
100.233561750354
100.230951447665
100.232794125756
100.232817888385
100.230951469414
100.233812363766
100.23384515195
100.231072504715
100.233085055644
100.233164051716
100.231441164527
100.234089896932
100.23376550772
100.230530089827
100.231957467444
100.240748716696
100.240421431095
100.238334842462
100.240458909751
100.240238611916
100.237786325749
100.239672618222
100.23980299701
100.23874382771
100.241610365481
100.242541996807
100.240583893739
100.242077795631
100.242023865829
100.240501594362
100.242571276661
100.242543935345
100.240203415093
100.242496650438
100.24259505475
100.241320640588
100.243329333729
100.242679995784
100.239825842955
100.276672567579
100.270768538618
100.270578997456
100.275052378929
100.270607748294
100.270421334734
100.274385772064
100.26966718885
100.269627044502
100.275254103993
100.272222111229
100.27346549463
100.278270950417
100.272587996496
100.272817455805
100.277566861461
100.273172238739
100.27326147631
100.277828975133
100.273242824407
100.273179988632
100.279053687543
100.27440673299
100.273430211871
100.311800066718
100.328115160545
100.316299044992
100.325857717602
100.308260000137
100.324405480341
100.31372681636
100.325128871128
100.307636232248
100.307382415455
100.324596086388
100.312880694226
100.322971926048
100.324036328957
100.314636250677
100.326542284428
100.344385641473
100.346045037498
100.329756716985
100.312275595451
100.310412102786
100.357579326178
100.386650645323
100.374186986165
100.376848150837
100.387787442397
100.376352795336
100.364009773534
100.31893534547
100.32958681461
100.327496478922
100.31114088331
100.3660358486
100.387359569074
100.368945393361
100.367100416925
100.37287255381
100.380601285472
100.359110882076
100.316330016469
100.327785359271
100.343518150588
100.310340391931
100.310467110925
100.328028373346
100.316694152547
100.327970953041
100.311661771327
100.330145419756
100.319681253237
100.33061113278
100.313260689869
100.347071673961
100.345815294324
100.375707386481
100.382917998336
100.360192705762
100.372153210879
100.364582591765
100.363980339499
100.37021050232
100.356789469242
100.379285592191
100.369742559453
100.369530088526
100.378624181438
100.369078365448
100.362439555627
100.362687586587
100.370180875719
100.380962417963
100.39802572254
100.401785701017
100.408244931739
100.408766242157
100.406035253352
100.397848121929
100.394733907847
100.409893140672
100.41527057601
100.413872026188
100.414294513555
100.414869217192
100.414751543875
100.414949111626
100.404919650429
100.409881496186
100.405345196907
100.396644448425
100.416377846522
100.415789528744
100.416461535147
100.412184949186
100.412333964355
100.41092933528
100.402039197963
100.393010430318
100.405024212485
100.411440764533
100.41286077166
100.415656401218
100.416191760276
100.41611689678
100.416754860128
100.417050366473
100.417040165916
100.416997926108
100.416969330513
100.416981864205
100.417020042508
100.417073117278
100.417137759408
100.417206302484
100.41724141123
100.417235598926
100.417258349646
100.417444003459
100.418314574341
100.42032854689
100.425519282516
100.433578555363
100.450203770273
100.443398872398
100.398430093494
100.355984999266
100.31086584245
100.286567179928
100.301492548292
100.302216264573
100.300091845164
100.299876048662
100.300789040062
100.301871033114
100.303024385451
100.304387787028
100.305908776871
100.307372542508
100.308560532399
100.309357749546
100.309722114146
100.309053800663
100.30819980902
100.307171604895
100.305936581718
100.304409078414
100.302617559591
100.300771228871
100.299101724948
100.297779815101
100.296811745078
100.296161900484
100.295711623028
100.295383177884
100.295131376961
100.294942869053
100.294851192387
100.294914759673
100.295241861032
100.295903108515
100.297045670366
100.298743977419
100.300444000071
100.301060646747
100.30117162523
100.301164345112
100.301196792122
100.301185007009
100.301206360228
100.301242302135
100.30121167787
100.301205611116
100.301154883698
100.301018233891
100.300838143075
100.300900370479
100.301014497727
100.301182638182
100.301162272023
100.30106297114
100.301167293268
100.301209858866
100.301217908499
100.301211036294
100.301244106657
100.301252258546
100.301194009445
100.301210535731
100.301196650169
100.301177923634
100.301182784475
100.301039358402
100.300778993717
100.301134353571
100.301195829915
100.301192513741
100.301212632411
100.30120422569
100.301258855118
100.301225165193
100.301221693255
100.301221322689
100.301193393893
100.301251066977
100.301179857978
100.301262566322
100.30135197227
100.301344360129
100.301315012797
100.301237303092
100.301233812584
100.30124706684
100.301269112708
100.301226032004
100.301236565846
100.301215541278
100.301225836643
100.301102799499
100.301031513655
100.301252047069
100.301268117271
100.301255591808
100.301266184888
100.301255641505
100.301281229895
100.301284925305
100.301277525537
100.301290704254
100.301301643413
100.301392988126
100.301440873443
100.301416772827
100.301338199655
100.301181446853
100.30140336734
100.301447824496
100.301590547695
100.30170577057
100.301666692777
100.301517137275
100.301495386476
100.301445130146
100.301330888728
100.301349910455
100.301320638482
100.301288523999
100.301287717237
100.301288028889
100.301304092323
100.301273759177
100.301303816099
100.301065370182
100.300779612847
100.301204487938
100.301306467195
100.301315263512
100.301331067445
100.301345659828
100.301335686959
100.301356377182
100.301374467376
100.301392746203
100.301418533259
100.301380011257
100.301506587181
100.301572430603
100.301698367475
100.301670394709
100.301720689309
100.301656649454
100.301618797639
100.301507441147
100.301499950983
100.301452186106
100.301446215819
100.301399397369
100.301352566774
100.301384987278
100.301389553616
100.301360429421
100.301375576348
100.301179586681
100.301172909103
100.301376010436
100.301435955159
100.301419413621
100.301434740555
100.301428119498
100.301478321977
100.301510480411
100.301536421611
100.301553083848
100.301709935902
100.301814942588
100.301889255234
100.301909030846
100.301789809163
100.301966575042
100.301972651338
100.302080503618
100.302168319931
100.302107826804
100.301992100505
100.301861561468
100.301742247513
100.301581635802
100.301577465153
100.301597913867
100.301545037052
100.30158788744
100.301503924356
100.301476890871
100.301508619625
100.301350998546
100.301448342088
100.301561259948
100.301580303942
100.301533494
100.30159712584
100.301602865075
100.301623516981
100.301599636527
100.301656479143
100.301638293066
100.301813940379
100.301948440686
100.302103794216
100.302127592492
100.30213900824
100.301981721724
100.301940858405
100.301757876907
100.301720554212
100.301651840589
100.301662505268
100.301637640262
100.301655112168
100.301674624963
100.301632917598
100.301597204662
100.30166639541
100.301405002139
100.30152407523
100.301626616937
100.301696790575
100.301657608636
100.301692936152
100.301711797994
100.301750292769
100.301715768701
100.30177998256
100.301743735215
100.301811059448
100.302080380713
100.302257091029
100.302371436267
100.302371139346
100.302456016546
100.302528927347
100.302475183795
100.302316017077
100.3021317088
100.30190620084
100.301873693694
100.301769476553
100.30176461501
100.301813806485
100.301740845696
100.301762565488
100.30181628798
100.30175575487
100.301810127234
100.301751324353
100.301565096661
100.30176694381
100.301763474702
100.301793735515
100.301855791986
100.301816705399
100.301935250241
100.301856618315
100.301953132464
100.301923404276
100.301966943551
100.302084988815
100.302280318538
100.302469977274
100.302488994117
100.302457997499
100.302287196086
100.302355183657
100.302545575387
100.302693068068
100.302627823742
100.302746167499
100.302636386327
100.302656252572
100.302647315882
100.302456232578
100.302225995999
100.302066154723
100.302015904417
100.301929272081
100.301911094993
100.301958870928
100.301897764876
100.30190809139
100.301917844232
100.301897229837
100.301863860351
100.301901044417
100.301889784418
100.301574068419
100.301920800522
100.301813871583
100.301737955369
100.301948460271
100.301907992945
100.30194527975
100.301977034247
100.301945424012
100.302002481896
100.301990044875
100.302130337694
100.302232166131
100.302263799599
100.302537491528
100.302738580879
100.302926624011
100.302863929149
100.302996821726
100.302928231667
100.30293455546
100.302903412316
100.302674507242
100.302416024991
100.302314084448
100.302145415926
100.302120303379
100.302141806759
100.302032264495
100.302091368206
100.302004406771
100.301967111836
100.30201306579
100.301937834368
100.301934550102
100.302030240182
100.301655467847
100.300852351877
100.301609693276
100.30101018135
100.300149725598
100.301084190953
100.300446694033
100.299646642517
100.298721760245
100.300125772153
100.299476222896
100.29778566106
100.29637563654
100.295450559997
100.294944478207
100.294761362101
100.294778666559
100.294926175945
100.295159192485
100.295474223991
100.295903084126
100.296516512172
100.297410892635
100.298626892414
100.300175724429
100.301908580068
100.303620980229
100.30512698825
100.306373882967
100.307422957097
100.308308678859
100.309015147549
100.309570728271
100.310239335818
100.310695116991
100.310209577779
100.309569045669
100.30873371479
100.307702050383
100.306449893326
100.30489785877
100.303070202097
100.301181271625
100.299453669683
100.298061818267
100.297036085656
100.29634997231
100.295884444236
100.295551468298
100.295300097354
100.29510405663
100.294979087777
100.294981809035
100.295188011751
100.295671415593
100.296566065862
100.298069795579
100.299918888843
100.300939654285
100.301187889724
100.30117213554
100.301196522584
100.301203787322
100.301216860489
100.301243807963
100.301228009185
100.301235015714
100.30117121848
100.301006293901
100.300746121616
100.30080483542
100.300497048857
100.300030571335
100.299336919548
100.299596989111
100.299913251998
100.30040146232
100.300366493321
100.300141577041
100.300565872991
100.30068253025
100.300845182285
100.300568732629
100.300795342325
100.300963837008
100.300599238523
100.300141534967
100.300522094139
100.300761705615
100.301062145512
100.301443508667
100.301359301976
100.30114365107
100.300880839794
100.300821172134
100.300979537484
100.30117183907
100.301189929232
100.301237521075
100.301141908599
100.30129760079
100.301251142595
100.301226010878
100.301167632796
100.301135178024
100.301115847249
100.301120496266
100.301131802747
100.301163898207
100.301190959723
100.301191453862
100.301208225727
100.301237512201
100.301215704655
100.30121349196
100.301153554065
100.30100619667
100.300940966707
100.301095509518
100.301212228341
100.301210972229
100.301242966078
100.301246032697
100.301260410113
100.301212785116
100.301265436887
100.301232164852
100.301254069572
100.301191438278
100.301043860972
100.300763720575
100.30036347072
100.300723604415
100.300410025624
100.299962041191
100.299203343592
100.298214336828
100.297094250429
100.295478943051
100.296884556727
100.29726221343
100.297852096182
100.298418980266
100.298825736684
100.29917200822
100.299866095699
100.299915187083
100.29967455346
100.299174822023
100.298709069428
100.29829292081
100.298069786516
100.298938938044
100.299436755147
100.300070388682
100.300307778804
100.300880892188
100.30110421299
100.301222407627
100.301236123116
100.301149043721
100.301156239854
100.301171117612
100.301197332609
100.301222368326
100.301266013841
100.301228908967
100.301322050401
100.301297710557
100.301360450226
100.301306233617
100.3011831296
100.3009049454
100.300521631988
100.299889168615
100.299147393937
100.299100706235
100.298055475268
100.296863080679
100.295076537127
100.293031383256
100.29020238991
100.291192392941
100.292558142628
100.293650488238
100.294594021325
100.295994073628
100.296148767156
100.295428024194
100.294752400282
100.293662735956
100.293203534079
100.295048651053
100.296379948574
100.29673195735
100.298148054935
100.299767921866
100.300464939502
100.300725657331
100.300857999109
100.30118860198
100.301212099387
100.301203721362
100.301221206395
100.301237871143
100.301298689058
100.301243205114
100.301396675263
100.301378513757
100.301460989037
100.301427849195
100.301312355141
100.301022040469
100.300648084029
100.299924501802
100.299221530916
100.298058185579
100.296909880529
100.294837580717
100.294842079629
100.29257034324
100.289429031938
100.285485576433
100.280298610613
100.260576634375
100.270661208305
100.281415173239
100.282522309539
100.28681571427
100.288113623738
100.283265473963
100.287011611032
100.289399600274
100.29123485726
100.292884587872
100.293868748608
100.295085060097
100.295177889698
100.294375225996
100.29288629361
100.291447655407
100.289980266701
100.289704769142
100.292107789922
100.294193615732
100.295137581519
100.297123816137
100.298346827286
100.300334893506
100.300789371843
100.300872520084
100.300964825421
100.301163668406
100.3011392783
100.301144630556
100.301133701746
100.301128723144
100.301123064676
100.30121419399
100.301221719237
100.301218013053
100.301234436466
100.301295872637
100.301240487339
100.301394608644
100.301378037317
100.301465052809
100.301432364532
100.301334492462
100.301015571778
100.300683910358
100.299903495871
100.299226064081
100.29805598291
100.296893940222
100.294818099557
100.292320406549
100.28909244823
100.289047465466
100.284579474575
100.279212555696
100.254630944595
100.225726729186
100.165095173983
100.183358992193
100.189241869457
100.192944302969
100.192500266042
100.199234639797
100.196527706967
100.192968058884
100.198364876346
100.202916693671
100.201040243548
100.196705403926
100.205471026907
100.200957907632
100.2013564635
100.208670534697
100.202200981451
100.201160682191
100.209140965331
100.204738091199
100.198273209753
100.207361608765
100.203967291277
100.196943345056
100.205611179778
100.202506387126
100.194967803954
100.205720472567
100.20709744205
100.204549849163
100.203818877246
100.201843752982
100.20033000637
100.199860629122
100.199987610165
100.199936636879
100.200308461244
100.200597304367
100.200608149666
100.200264646678
100.200485542034
100.200645531231
100.200718966452
100.200513647356
100.200370553503
100.200770980133
100.200468703455
100.200318451783
100.200257482393
100.200497419547
100.200600189385
100.199887758464
100.199894911635
100.200559645054
100.200466804453
100.200220314314
100.20033042599
100.200473484948
100.200776933392
100.200369551331
100.200513857197
100.200719429868
100.200646261167
100.200486834647
100.200266769475
100.200609926252
100.200600352796
100.200310722246
100.199936841253
100.199984832601
100.199860889052
100.200334047336
100.201306445395
100.202325008744
100.20233941698
100.201298301146
100.201779588689
100.202706037987
100.202724053428
100.201796586637
100.201855897089
100.201690241513
100.201273413847
100.201877714543
100.202080055854
100.200736240625
100.201240391403
100.200979243805
100.201147719307
100.201594415028
100.20068493813
100.201333131192
100.201864087331
100.201984604274
100.202572735878
100.200756128487
100.201733969953
100.201131185322
100.201034008497
100.200601116288
100.20117180939
100.202998469554
100.201661540306
100.200369256647
100.20159628359
100.201580547863
100.200348180622
100.201153928594
100.20059875468
100.201026797542
100.201138562711
100.20173262068
100.200749495083
100.202573248412
100.201978873104
100.201856817347
100.201329455812
100.200678739594
100.201591570053
100.201145492297
100.200974816639
100.201236739693
100.200729269652
100.202079941642
100.201877862806
100.201272027864
100.201682105275
100.2036767486
100.203115803076
100.203955499594
100.201501386595
100.200078242601
100.20393394992
100.203132588321
100.202563645194
100.203221858942
100.201974296061
100.202868099874
100.200239222778
100.205929352508
100.205191225587
100.205531477982
100.202007100348
100.201173805258
100.201166173474
100.202001826702
100.203817987364
100.203688782854
100.203125941055
100.20323126754
100.202572248558
100.203134719946
100.202980054925
100.201069383066
100.202009106321
100.203183225137
100.204188511734
100.202369417999
100.202697758032
100.203503042097
100.20451313673
100.202054801419
100.201487924447
100.202001479821
100.202082640152
100.202077388162
100.201561479934
100.20185572293
100.202623477821
100.202618972582
100.20184296226
100.201544770165
100.202071999585
100.20199882059
100.202047153559
100.204520817344
100.203496708049
100.202692228383
100.202358415829
100.204198655052
100.203198232882
100.202016116326
100.201067671332
100.202993765361
100.202191223994
100.200980890975
100.201749565237
100.201533093752
100.202523561737
100.200973362322
100.200574293335
100.202810344019
100.20313732586
100.20329200434
100.202936788962
100.20400552304
100.202183841259
100.201727836295
100.203973124173
100.205043049824
100.205073014401
100.203950502443
100.204795843101
100.201350898373
100.202433224648
100.20447365269
100.203705995457
100.205347527384
100.204520632788
100.205475286367
100.204630272496
100.201137291116
100.202052571876
100.201420584805
100.199475494096
100.193023486675
100.19369039972
100.187766964141
100.191278149564
100.178554946655
100.17295166767
100.176658442618
100.182304445739
100.162675998995
100.236072230243
100.258399472921
100.222404527527
100.250670209388
100.270059901147
100.278087302322
100.283760217674
100.283669261952
100.278814668696
100.271897065764
100.279624576483
100.283650791842
100.286458485178
100.288754912971
100.286837121869
100.28999000791
100.291576999833
100.293030078964
100.294035359102
100.293910364722
100.292394619196
100.291013163657
100.290713531127
100.292152232353
100.29342649725
100.294078540638
100.294955433229
100.293042409265
100.29455587364
100.293291427585
100.292482653202
100.292205219105
100.292079148425
100.292580706772
100.29165661487
100.291597741692
100.291987049113
100.292799598574
100.290995370218
100.293790930398
100.294217567225
100.294836238454
100.295729200991
100.297508367361
100.296793438153
100.295833984748
100.295042427501
100.294089920742
100.293127242983
100.292293558042
100.291156925421
100.293319248391
100.292254567492
100.291856512195
100.292351355394
100.29167155764
100.292469206751
100.291792441971
100.295572247612
100.296319309961
100.297046558708
100.296842325105
100.296593772529
100.296790676812
100.298752499449
100.300683986414
100.299373886691
100.298736661051
100.299251468918
100.295116254916
100.294629556318
100.295798692071
100.297495726581
100.296709304171
100.299339121389
100.297414923448
100.297796591043
100.298293314243
100.297616602573
100.29691267292
100.296202160783
100.295998515597
100.296438129506
100.29563467399
100.294587255748
100.293574951756
100.292622091251
100.292934172998
100.291865913384
100.290825202039
100.291819001033
100.290447732032
100.290655970158
100.290886626712
100.291970578539
100.29382485295
100.293663924474
100.29214453632
100.292931405631
100.292333545029
100.295050274669
100.294077956427
100.293903813196
100.294280027096
100.295236755945
100.297305067673
100.295012246349
100.296926850196
100.298147116597
100.300249172525
100.300906879812
100.301813772757
100.300827068817
100.300237273765
100.300225135395
100.301651057514
100.301181392683
100.300111706691
100.30021460929
100.297952372983
100.299403340726
100.298253670977
100.297295878348
100.298844515769
100.298191017868
100.298577728416
100.298149627506
100.298255612655
100.297933323901
100.299874797624
100.300389016019
100.30127085738
100.30176610233
100.301852224593
100.301912646277
100.301681143649
100.301709651043
100.301192745135
100.300810008072
100.300197327439
100.299314340969
100.298297041264
100.29711955028
100.29628077379
100.295795647126
100.295663916237
100.296350208382
100.297684918576
100.299445029057
100.300797242375
100.300752855019
100.300751092668
100.301211497859
100.301203164841
100.301193322628
100.301211154875
100.301258271973
100.301222463287
100.301321069851
100.30129796086
100.301367497795
100.301313774229
100.30121172004
100.300903627767
100.300565649978
100.299866816208
100.299147443974
100.297975241815
100.296798410221
100.294809165308
100.292531227667
100.289473196669
100.285583132455
100.280546689806
100.260916365187
100.254950991279
100.22601538565
100.164665931627
100.183183714089
100.189140013695
100.19287630606
100.192476529962
100.199101872745
100.201002216513
100.19673881484
100.205571070236
100.20094840344
100.201382241642
100.208659449404
100.202226809406
100.201179995379
100.209140943809
100.204750031349
100.198302123264
100.207342159451
100.203983659917
100.196950971879
100.205612252633
100.202523031703
100.194972245065
100.205925368851
100.20517870393
100.205585547083
100.205680275568
100.204577686455
100.207132873426
100.201493924084
100.203962304956
100.20194611692
100.203934701763
100.200080231359
100.200982388639
100.202187098374
100.203281399001
100.203982882838
100.203131498515
100.202436260123
100.201085142487
100.201427216026