/*--------------------------------*- C++ -*----------------------------------*\
| =========                 |                                                 |
| \\      /  F ield         | OpenFOAM: The Open Source CFD Toolbox           |
|  \\    /   O peration     | Version:  v1612+                                |
|   \\  /    A nd           | Web:      www.OpenFOAM.com                      |
|    \\/     M anipulation  |                                                 |
\*---------------------------------------------------------------------------*/
FoamFile
{
    version     2.0;
    format      ascii;
    class       volScalarField;
    location    "1.2";
    object      p;
}
// * * * * * * * * * * * * * * * * * * * * * * * * * * * * * * * * * * * * * //

dimensions      [0 2 -2 0 0 0 0];

internalField   nonuniform List<scalar> 
80683
(
100.068953436465
100.070923270015
100.067762334555
100.072088400666
100.079114686215
100.079251019591
100.077304129883
100.077854623135
100.077839545034
100.078219362139
100.078716611111
100.078485296962
100.080210063711
100.07982515641
100.082365555231
100.082367054806
100.078938069253
100.074123407229
100.073037104063
100.072988269755
100.073991766758
100.07384738862
100.073063972921
100.074503752424
100.080950643774
100.0810002725
100.075286159009
100.073479814186
100.073374418236
100.072661547507
100.072529847762
100.073515449549
100.073465970769
100.07521637635
100.08076519318
100.080595916538
100.074398758581
100.073017756834
100.073750855845
100.073704777884
100.072823166152
100.072873233941
100.073996998689
100.078736282096
100.082008011853
100.081859284258
100.074916896098
100.074402439749
100.072208244668
100.07168990175
100.071616347707
100.071245236808
100.070710110594
100.069573684718
100.070664757374
100.071815439411
100.0719775889
100.071141486205
100.070107220135
100.068955333959
100.068583530465
100.069173681781
100.069099363312
100.068423512036
100.068976952766
100.07010716644
100.071083947535
100.072066032323
100.072038810574
100.070848467042
100.069749950466
100.070926690276
100.071353561731
100.071684133795
100.071687684426
100.072189156908
100.074626924696
100.075335252633
100.072729431711
100.075885329496
100.079002875283
100.08065553839
100.078498148356
100.078247506241
100.079411119378
100.077405613041
100.074926370998
100.070731138657
100.076032641007
100.064131088636
100.052104929602
100.057822240926
100.058940380713
100.071127523491
100.067026870809
100.068241715048
100.070396342122
100.068400048418
100.066985280313
100.066471579099
100.069045064088
100.07054464048
100.066479998024
100.06553930153
100.067875257843
100.065081319978
100.063962433578
100.064992333673
100.06499659752
100.064013282431
100.065096047835
100.067826175616
100.06549762373
100.066296993394
100.070781032106
100.069570435506
100.066805941893
100.067172094344
100.068501433622
100.070458512773
100.068193306113
100.066900496541
100.071448843354
100.071483050962
100.068485414274
100.072025606073
100.078261257383
100.083659805756
100.077026419533
100.076933292416
100.081214387203
100.096510410825
100.065124703659
100.065666151165
100.049544530575
100.023089179922
100.024000131993
100.019536370717
100.019937933273
100.026318018389
100.057070334339
100.069416314021
100.065523451216
100.065325258611
100.072223390433
100.058501280581
100.059250753902
100.059179615712
100.059371457274
100.069080935085
100.064232859399
100.064221664188
100.069026803741
100.059397035713
100.059220330675
100.059247852086
100.058333488848
100.057169930612
100.059223119391
100.05744195714
100.017945764798
100.021116341535
100.022116373065
100.021963559049
100.021162948603
100.021298968234
100.022748854533
100.023394873024
100.026718957068
100.023833108639
100.024840094231
100.028428953833
100.028432475107
100.024847703416
100.02378838401
100.026472482447
100.025980633637
100.019264147629
100.020982250356
100.027763467145
100.028201883325
100.027078422887
100.026950463753
100.028042713456
100.027913100269
100.027005386835
100.027375316084
100.027662060014
100.022441898798
100.023212599552
100.02441207456
100.024368452213
100.023092863346
100.022217739633
100.023144247284
100.022416635798
100.026759011447
100.028020153461
100.028747691573
100.029003082576
100.028172758553
100.028190741196
100.029091395554
100.028920745556
100.028239763384
100.028474332474
100.028663181742
100.028667740276
100.027944125368
100.027536141305
100.027472163326
100.027757376746
100.027303600441
100.027098880424
100.028232016584
100.02642903728
100.026275831663
100.026481547593
100.026650579877
100.026140952152
100.026096932211
100.026644437491
100.026600643689
100.026385148125
100.026604284928
100.026600226468
100.02660976155
100.02648018458
100.028284521329
100.028229739489
100.028525525568
100.028413558473
100.026432987702
100.024099849579
100.024126254386
100.024008712518
100.024024068476
100.024030155648
100.024018027126
100.023932849331
100.023932062492
100.024080605663
100.024029534332
100.024225162477
100.024195155801
100.02426127392
100.024220269733
100.024198702214
100.026446577111
100.026554660628
100.024224257106
100.02231642974
100.022197182387
100.022200114697
100.022095741102
100.022117736252
100.021963433607
100.022418377247
100.022410652153
100.021970299079
100.02215226935
100.022090420106
100.022253713906
100.022241764817
100.02234843216
100.02232455068
100.02230889991
100.020623998874
100.020599975614
100.020457232116
100.020424113808
100.020301034047
100.020364419563
100.020183818405
100.020063892212
100.020136489424
100.020285857935
100.020411348356
100.02034278272
100.02048977081
100.020497699232
100.020639743866
100.020642614359
100.018903565889
100.018863233265
100.018755837622
100.018539404124
100.018450198346
100.018274270725
100.018321917749
100.018311717512
100.017867723735
100.017913530054
100.01834140102
100.018433644312
100.01845046399
100.018614744644
100.018648601441
100.018863863897
100.016777920957
100.016881468264
100.016789454738
100.016515441956
100.016139419737
100.01599613248
100.015744280748
100.015726746309
100.015850033677
100.015116653707
100.015210109051
100.015984139644
100.015997796339
100.01617598346
100.016377913735
100.016467439331
100.013353719814
100.013941548523
100.014191995634
100.013976188672
100.013403230884
100.012607433046
100.012638503368
100.012255257465
100.011832267003
100.012254697794
100.010879630064
100.011087515264
100.012768445444
100.012502846598
100.01310239917
100.013413868521
100.009113804747
100.008070143403
100.009356719757
100.01013820181
100.009701797337
100.008343839234
100.006500785083
100.007419101914
100.007019354087
100.005147872615
100.007053560728
100.004385235183
100.004453790258
100.007761426756
100.006513351107
100.008746030181
99.9970481752193
99.9967055101432
99.9915187624776
99.9941979315582
99.9978702768767
99.9970682602841
99.9923470352417
99.9887550407074
99.9938466484
99.9942043024868
99.9872033572572
99.9921960195687
99.9902796125381
99.9906137404513
99.9936604319579
99.9900608891907
100.001595958681
100.008427073658
100.006833791289
100.001527644684
100.007964107419
100.009150891727
100.007691988338
100.00470170628
99.9967133617375
100.00174358073
100.003617042245
99.9972590357584
99.994233084896
100.03051671191
100.055862621906
100.056846501423
100.033299219799
99.9977802700659
99.9966699204957
100.091447403593
100.176826511984
100.119231247648
100.120764645133
100.10655553324
100.090500904708
100.078777141924
100.07191682952
100.067841681218
100.071206410479
100.084055869105
100.072226016932
100.07029399022
100.078635096504
100.063812347549
100.060152469396
100.06515037857
100.072393435146
100.085997409072
100.103029488798
100.199631605586
100.223045996025
100.224908711265
100.203592308574
100.205166432874
100.19473509736
100.21797011928
100.257202624673
100.165973588668
100.167318069121
100.222445203846
100.183826937124
100.209650036947
100.234250840702
100.172779819256
100.169753550941
100.228482167933
100.202242103717
100.173745785655
100.211094744486
100.155651875483
100.155656524055
100.208178071965
100.18651654603
100.199547009925
100.297796793553
100.349111736356
100.32005977725
100.322266482858
100.354510816647
100.321000762634
100.304295940835
100.41222016479
100.442348840027
100.417518043174
100.432068329754
100.426223815729
100.384546226567
100.324165974571
100.353403942255
100.300549800827
100.405968481665
100.433414560779
100.405835259953
100.417599871154
100.441235510153
100.392913596635
100.329558482825
100.332301800656
100.259205460994
100.300358861665
100.381381372518
100.420197327152
100.444068913497
100.458299482818
100.466471364928
100.470570995487
100.472170218095
100.472735641705
100.472713261077
100.472595462162
100.472591873207
100.472772093759
100.473071669636
100.473431528695
100.473858296152
100.474260739906
100.474377256872
100.474279366491
100.474519706993
100.475306013564
100.477389491874
100.481948451382
100.493182839916
100.514067346854
100.555274108959
100.550610604636
100.488531212647
100.436448333064
100.383569950136
100.353453502254
100.374889597802
100.372891562806
100.371046902325
100.371656959366
100.372681138042
100.37362015367
100.374733353972
100.376196753089
100.377938410079
100.379770834446
100.381454320043
100.382737616801
100.38340593603
100.382570385247
100.381518973122
100.380249977077
100.37879432639
100.37717236897
100.375390696097
100.373524063171
100.371724139467
100.370132522718
100.368827867791
100.36779175703
100.366978727766
100.366353726954
100.365908153064
100.365676403548
100.365699390258
100.366054102545
100.366830457426
100.368084941304
100.369693396107
100.371315523562
100.372253685808
100.372426777138
100.372314788356
100.372524803201
100.372583900643
100.372640900014
100.372678432889
100.372725362575
100.372818136779
100.372881629653
100.37313308682
100.37328702373
100.373414901535
100.37336688867
100.373297478193
100.373165430625
100.373045603857
100.372887809017
100.372885928956
100.37283152311
100.373082470701
100.37323010795
100.3732912747
100.373147246481
100.373007934473
100.372773932288
100.372698814288
100.372626286113
100.372586756362
100.372565796756
100.372512251091
100.372468834129
100.372355089939
100.372361672417
100.37221580736
100.372410121459
100.372433453329
100.372481683646
100.37250724259
100.372553179708
100.372593837462
100.372640073326
100.372858692198
100.372994090821
100.373136863804
100.372938881788
100.372819797693
100.372691949238
100.372512505212
100.372508421654
100.372475863917
100.372419202238
100.372395787604
100.372360856746
100.372341981994
100.372201943763
100.372218278451
100.372101711904
100.372282189856
100.372286797125
100.372320746455
100.372335608251
100.372392369263
100.372426642508
100.372435569728
100.372562977202
100.372668926096
100.372736722131
100.372740187818
100.372610413492
100.372426198225
100.372242922393
100.372207307925
100.372158132457
100.372420053441
100.372578966245
100.372515191722
100.372440693491
100.372339819075
100.372315854381
100.372298157614
100.372259511639
100.372246703097
100.372215021249
100.372204740912
100.372060072488
100.372029077423
100.371985452947
100.37214441595
100.372144818237
100.372165336893
100.372189264578
100.372231441988
100.372232394582
100.372230730713
100.372320631247
100.372374727295
100.372205655979
100.372178326424
100.372133281307
100.372160532929
100.372154748811
100.372109575761
100.372091499119
100.372079697745
100.372062797401
100.371931944805
100.371839308109
100.371881270211
100.372008027045
100.372014545283
100.372032482367
100.372045089631
100.372067345869
100.372061342726
100.372029246691
100.372104911992
100.37206324908
100.372093551124
100.371974873492
100.371979824188
100.371885014638
100.371970487542
100.371963382264
100.372023652512
100.371965105445
100.37202358776
100.371982622548
100.371965968828
100.371946136151
100.371934779707
100.371831097858
100.371639122733
100.371792918063
100.371877691862
100.371856257882
100.37189605684
100.37187803548
100.371913523671
100.371906842395
100.371912892177
100.371803053786
100.371856302164
100.371655048871
100.371579317971
100.371405418651
100.371480901252
100.371413064151
100.371698772953
100.371753000955
100.371850032821
100.371830401383
100.371860739096
100.3719316526
100.371897065552
100.371782274393
100.371853548387
100.3718345601
100.371795572835
100.371725969371
100.371670923666
100.37133278523
100.370370701753
100.371324082874
100.371677378978
100.371698300323
100.371751299109
100.371792333949
100.371780922217
100.371859608832
100.371824585658
100.371810527719
100.371801029403
100.371696284716
100.371551696071
100.371483800492
100.371394755947
100.371599382871
100.371434539851
100.371645013797
100.371751570554
100.37171469556
100.371760261388
100.371811486948
100.371748812578
100.371749593685
100.371712280396
100.37165212802
100.371638378522
100.371296592794
100.370187921948
100.371335706992
100.371645730165
100.371645523361
100.371691702747
100.371720482934
100.371724962419
100.371761562474
100.371749844233
100.371645615053
100.371683921804
100.371475126795
100.371500497144
100.371648940862
100.371732597358
100.371694222519
100.371545690956
100.371453225919
100.371054266883
100.37087042583
100.371165556445
100.371153641066
100.371497124615
100.371242650802
100.37156798678
100.371669563126
100.37170277013
100.371698127577
100.371707703767
100.371667563194
100.371688183597
100.371642242291
100.371628033464
100.371623535007
100.371343861133
100.370280536234
100.371477355735
100.371610831427
100.371603675286
100.371688090789
100.371616732211
100.371744818984
100.371683370895
100.371772502901
100.371757125127
100.371764088395
100.371804430536
100.371853014466
100.371914864079
100.371951737756
100.371874292828
100.371888266635
100.371935073917
100.371984045022
100.372045568168
100.372110277727
100.372174758904
100.372247369936
100.372311597822
100.372391101193
100.372455217815
100.372540336994
100.372664035117
100.372723633631
100.372775426549
100.372805968551
100.372911112248
100.372993899338
100.373262981959
100.373418959771
100.373536111812
100.373521743337
100.373440063155
100.373297381099
100.373022038097
100.372810135549
100.372662105424
100.372522398931
100.372406916979
100.372435872931
100.372529045984
100.372743330998
100.372877776864
100.373163986715
100.373032074655
100.372855978866
100.372605616646
100.372454342458
100.372384066532
100.37221163376
100.372060615986
100.371889518808
100.371743034915
100.371760755985
100.371799266586
100.372027813668
100.37226130334
100.372403362348
100.372525178219
100.372651196873
100.372565044181
100.372406223711
100.372195208679
100.372023117176
100.372037614915
100.371931896683
100.371772459967
100.371683506362
100.371469051558
100.371201618071
100.370952679178
100.370819442272
100.370597033989
100.370699055661
100.37078597454
100.371088537517
100.371407347265
100.371157289111
100.370957723733
100.370788526212
100.37056577878
100.37084338068
100.370819074062
100.371182182024
100.371212502973
100.371102299527
100.371342766684
100.371423717663
100.371736658657
100.371763135794
100.371797003578
100.371824761636
100.371848439928
100.372033354761
100.372090631785
100.372168584849
100.372219830782
100.372292257523
100.372346633912
100.372414402589
100.372464832514
100.372513980289
100.372546216221
100.372594642809
100.372644757035
100.3726099492
100.3727440317
100.372813000735
100.372867935248
100.372878102939
100.373018385677
100.373123263186
100.373399024608
100.373529646556
100.373648550986
100.37361295958
100.373589254082
100.373605810617
100.373420408331
100.37319949687
100.373055587496
100.372942764711
100.372636684686
100.372271376604
100.372101444478
100.371971753411
100.371766885953
100.371612501634
100.371473255554
100.37135028369
100.37120042721
100.37108983911
100.370954525941
100.371033947807
100.371181213723
100.37140099444
100.371557177637
100.371702932607
100.371802590153
100.371948349768
100.372082566453
100.372222452531
100.372349961814
100.372190496536
100.372390759358
100.372647828845
100.372643359109
100.372844032907
100.372768390572
100.372671098673
100.372475013513
100.372548999196
100.372648099426
100.372698210972
100.372697991034
100.372830552327
100.372892599499
100.372950299092
100.372969967794
100.373133556195
100.373228782169
100.37349421232
100.373613459373
100.373704850088
100.373685917288
100.373686564537
100.373509009657
100.373323419464
100.373036265682
100.372729684828
100.372424738943
100.371887552266
100.371655748568
100.371487259978
100.371321725641
100.371129398249
100.370982878923
100.37079532255
100.370642795927
100.370500686292
100.370702279827
100.370918079208
100.371144530212
100.371460129873
100.371517397814
100.371719357176
100.371540713086
100.371758139536
100.371935558285
100.371788991519
100.372076753823
100.372521742206
100.372675636675
100.372666774092
100.372584619933
100.372713613969
100.372767519596
100.372911035329
100.372958984223
100.373030569127
100.373053524467
100.373222480639
100.373315628015
100.373568287518
100.373690059912
100.37379818345
100.373773850963
100.373780941002
100.373606795221
100.373449567517
100.373180327973
100.372854335481
100.372580522871
100.372082149339
100.371878105843
100.3715845321
100.371388993856
100.37133702544
100.371110271133
100.370948177148
100.370775025026
100.370619891352
100.370391191672
100.370165888276
100.369960272328
100.369783709665
100.369596591612
100.369338239594
100.369088340063
100.369392373719
100.36969696477
100.369879728128
100.370049225224
100.370226172018
100.37041912379
100.370667518131
100.370874639022
100.371019785449
100.371159236891
100.371382281451
100.371233281122
100.371073031983
100.370672251759
100.370719164212
100.370906611564
100.370899902646
100.371392120656
100.371697672789
100.372323327956
100.372521658004
100.37251058097
100.372461126567
100.372586929116
100.372644031665
100.372429876104
100.372496106136
100.372581842241
100.372579241721
100.372720502741
100.372840579897
100.373006845952
100.37303103515
100.373114774979
100.373130546669
100.373308055347
100.37341181503
100.373650680698
100.37377461809
100.373917737356
100.373832123077
100.37389729494
100.373726247653
100.373560029801
100.373291080023
100.37298839266
100.372706954034
100.372225374126
100.372005896421
100.371604173366
100.371551756495
100.371391163359
100.371433604348
100.371359747409
100.371460953146
100.371284006662
100.37110556695
100.370954112823
100.37078621798
100.370592514053
100.370347663182
100.370113371123
100.369882025794
100.369647869796
100.369335742735
100.368982992714
100.368658663218
100.368396373651
100.367978529333
100.368232533198
100.368615421199
100.368892124139
100.369227416352
100.369473560042
100.369679602949
100.369925381527
100.370166181618
100.370415998212
100.370585971613
100.370749938613
100.370904086569
100.371125660504
100.371099093744
100.370996916604
100.370814125965
100.370713877561
100.37056542334
100.370794751755
100.370418686604
100.370170971484
100.369805492994
100.369405465562
100.368996546117
100.368514363424
100.367829601203
100.366874883757
100.365587637482
100.364821146618
100.365029305221
100.365778868961
100.366527637597
100.367150823446
100.367824959578
100.368360296849
100.368873456371
100.369326793449
100.369724219943
100.370107845717
100.370672720836
100.368949029368
100.368358095046
100.367975054052
100.367634526779
100.367362541885
100.367173896453
100.3668517819
100.366405972244
100.365533857715
100.364761495967
100.361822854258
100.35972069003
100.36304717156
100.362181021203
100.360730427954
100.356902862774
100.356727886413
100.357024044663
100.359997501017
100.361672917525
100.362530108647
100.363843786508
100.364687242963
100.365983434662
100.366941847561
100.367589615151
100.368251957485
100.368769919356
100.369291853334
100.369718890163
100.370102121777
100.370446885387
100.37088135147
100.37065482355
100.37126639833
100.369435237361
100.372816107619
100.37304754673
100.373132042874
100.373312193863
100.373479647762
100.37343902854
100.372823517108
100.371782574517
100.370643280069
100.369262914967
100.367611750469
100.366253238407
100.364455823731
100.364958240394
100.364705961317
100.361879136063
100.359549090897
100.359399196114
100.349354603767
100.35218740109
100.351575252923
100.355738644366
100.358355985712
100.365392231463
100.367072383409
100.369826190011
100.369665156485
100.369958371749
100.370205239488
100.370479773199
100.370862577892
100.371233166487
100.371627372446
100.371972665845
100.370681846751
100.368966940584
100.367390616746
100.366290039888
100.365709300159
100.365528600957
100.365662208915
100.366018244266
100.366544463325
100.367213806408
100.368056328952
100.369131008981
100.370475603239
100.372109016539
100.373953130286
100.375870103592
100.37771972357
100.379418921378
100.380942371377
100.382255001717
100.383320557422
100.384142555085
100.384788638172
100.384085671066
100.382776098409
100.382102617224
100.38130031637
100.380323704562
100.379166095195
100.377851770876
100.376376571456
100.374716423562
100.372943657085
100.371227618785
100.369710986669
100.36846994924
100.36749387605
100.366746861789
100.366205682514
100.365877414802
100.365788342365
100.365978249815
100.366507323477
100.367454238213
100.368819913995
100.370424341041
100.371862047088
100.372484300308
100.372622597062
100.372693008298
100.372681083768
100.372736830754
100.372902980504
100.373069193333
100.373085077085
100.373192838921
100.373226243697
100.373443018938
100.373562167428
100.373750025318
100.373909885301
100.373915694393
100.373991644527
100.374049219091
100.374023440022
100.373861384596
100.373705575367
100.373379874465
100.373144449049
100.37294985292
100.372807977264
100.372499128662
100.372164807604
100.371774210209
100.371673238182
100.371528577661
100.371505649337
100.371617538573
100.371533696782
100.371791747266
100.371680389232
100.371492345698
100.371605709748
100.371391031802
100.371230141411
100.371073328974
100.370859403259
100.37062211062
100.370386443787
100.370121242717
100.369817312026
100.369547925851
100.369106571542
100.369312384274
100.369672634609
100.36997482823
100.370227609914
100.370461806544
100.370707261784
100.370916549894
100.371075806239
100.371249573935
100.371471633531
100.371336002835
100.371365723171
100.371411875318
100.371209885721
100.370857906029
100.370547100307
100.370429658978
100.370596775262
100.370854935888
100.371070943563
100.37245913124
100.372449169026
100.372977106742
100.372778840531
100.372558821192
100.37289295005
100.372898963583
100.373054020721
100.37325741826
100.373203215746
100.373324600077
100.3734075036
100.373677391559
100.373974224754
100.37414803001
100.374232985659
100.374177473948
100.374070018426
100.373980643798
100.373857569874
100.373542840108
100.373301443249
100.372931204977
100.37261069472
100.372298223867
100.37192300974
100.37180022103
100.371529467894
100.371650806176
100.37150303726
100.37164106252
100.371722163
100.371917797574
100.371830787212
100.372075669361
100.371907947812
100.37193240252
100.371787634159
100.371664500704
100.371526733473
100.371358537959
100.371167399674
100.370975744091
100.370758128058
100.370504236759
100.370224056114
100.369931673883
100.369592127593
100.369163667875
100.368690073688
100.368332680752
100.367905275908
100.368230263581
100.368677214134
100.369116228733
100.369366775115
100.369689472517
100.369998726918
100.370286056555
100.370537224546
100.370770579838
100.370986677248
100.371175744552
100.371348655756
100.371533474524
100.371742593912
100.371881683684
100.37177203098
100.371666549306
100.371659393138
100.37139417385
100.370526644463
100.369772704485
100.369480295311
100.369717060374
100.370042067676
100.370713114829
100.371127961521
100.371001671959
100.370102233675
100.371906318393
100.370187727505
100.372419833302
100.372603555265
100.374000630659
100.372353323093
100.371847284426
100.37133035382
100.370606240756
100.369808698009
100.369070894562
100.368381585625
100.367738071757
100.367144112911
100.366471678679
100.366394904635
100.364745962122
100.364700332431
100.364188626144
100.36298944252
100.36041322606
100.359404058906
100.358770910265
100.358940453759
100.350241161432
100.353877131426
100.350248658475
100.349194806539
100.352355598209
100.353992948453
100.351929206331
100.35252887079
100.352543461876
100.357505889209
100.35583954044
100.358028751373
100.356465387577
100.354329220268
100.355480806531
100.358035875369
100.359435167858
100.360623611179
100.360918701433
100.358568657797
100.359514092434
100.361848706904
100.363139331719
100.364876945846
100.364524966431
100.365867462031
100.366876296291
100.367863918397
100.36860382041
100.369265657667
100.369757350348
100.370161548836
100.370493133618
100.370816554964
100.370983778766
100.371009311231
100.371128794804
100.371246584154
100.370414264413
100.369480190211
100.3718781434
100.372984434433
100.373091959562
100.372904480586
100.372924661706
100.373159687158
100.373172801547
100.373413808931
100.373384716993
100.373504333467
100.373603786581
100.373891394299
100.373989932421
100.374296780685
100.374428879455
100.37437670887
100.374415507682
100.37433721773
100.374298880811
100.374271514536
100.374161013402
100.373976588875
100.373709764117
100.373468611894
100.373392919221
100.372932377427
100.372709719801
100.372469408123
100.372376250855
100.372145705
100.371943313302
100.371679227062
100.371763435511
100.371745500546
100.371878219472
100.3720248718
100.371939006207
100.372136377967
100.37206516333
100.372214710968
100.372104333531
100.37200565359
100.37185821982
100.371861775804
100.371656961008
100.371509590451
100.371329079153
100.371141082203
100.370912093679
100.370689604522
100.370407158701
100.370108624473
100.369808165023
100.369447996385
100.369018861195
100.368681030148
100.368891865718
100.369333694724
100.369691642114
100.370002561401
100.370301641114
100.370581038527
100.370811850419
100.371027501754
100.371230958117
100.371420977048
100.371582483576
100.371745326946
100.371762664031
100.371809483521
100.37163677182
100.371444583104
100.371663440219
100.370932841305
100.371166487476
100.370411508242
100.370842322636
100.371221330379
100.371307000403
100.371549686192
100.371424144894
100.371695525262
100.369912224336
100.373509930272
100.374952976333
100.37320567577
100.372117042005
100.372297053272
100.370894415206
100.370236996825
100.369396538301
100.368421975755
100.367775719631
100.367162918382
100.366584687689
100.36605366143
100.365634746047
100.365224707152
100.36516693789
100.365541970577
100.36620203649
100.366784704893
100.367538767751
100.368369458923
100.369270010317
100.370094748817
100.370716512177
100.371399449277
100.372178998202
100.371502333441
100.371326779113
100.371921844309
100.372279432244
100.372786663515
100.372752408956
100.372705633917
100.372950400402
100.372976767173
100.373211247032
100.373240005068
100.373270978971
100.373473260226
100.373526004745
100.373757144946
100.374066339534
100.37422430274
100.37430511608
100.374263588537
100.374258944371
100.374244152786
100.374144797799
100.373888628724
100.373486496497
100.373214166512
100.373491172274
100.373633985046
100.373836482958
100.374148389537
100.374280619718
100.374363471869
100.37441841688
100.374308363698
100.374187155359
100.373968924922
100.373903760746
100.373766957057
100.373498284308
100.373449146307
100.373362879171
100.373375673455
100.373112338969
100.373099517899
100.372874581337
100.372829714329
100.372714281832
100.373024701685
100.373032466933
100.373272729628
100.373316612051
100.373382905884
100.373410501723
100.373034482901
100.373118161098
100.373223381851
100.373342921893
100.373602793727
100.373670280576
100.373894539922
100.374245194977
100.374407534026
100.374421798463
100.374335781691
100.374165044202
100.374082701984
100.373915653761
100.37386257181
100.373778641744
100.373657360086
100.373463128094
100.373241918016
100.37290535755
100.37278673694
100.372412997443
100.372202003762
100.372057679944
100.371783997542
100.371875788843
100.371758540656
100.372024531289
100.371903186519
100.372017711803
100.372083540134
100.372205322874
100.372158720508
100.372298104238
100.372246099256
100.372317424891
100.372228049465
100.372117236762
100.371982210858
100.371812380656
100.371633033943
100.37146119042
100.371256090808
100.371053876832
100.370796867195
100.370560653561
100.370260559072
100.369939699049
100.36961836433
100.369225723591
100.368760439806
100.368403402269
100.36788938754
100.367240847682
100.366572974302
100.365940058316
100.365037886843
100.364263685643
100.365169912863
100.366007794781
100.36666465254
100.367346749435
100.367927477538
100.368353192421
100.368529513255
100.368164185863
100.367843225799
100.367232710197
100.366561725758
100.365829178943
100.36485782331
100.365690197746
100.366258179532
100.366944919423
100.367481176251
100.367833004907
100.367215893878
100.366639643845
100.365842697531
100.366406796947
100.366951551078
100.367493970693
100.368084825205
100.368583850762
100.368961630355
100.369129982338
100.368643985612
100.368208418071
100.367812337229
100.36737866788
100.366672157207
100.367172663073
100.367760478179
100.368055078147
100.368397831009
100.368776832154
100.369280793575
100.369651846073
100.369927418672
100.370165466343
100.370396693213
100.37064165721
100.37084008136
100.37100604939
100.371167412106
100.371111116834
100.370857466713
100.37054175513
100.370154931532
100.370304678939
100.370428565488
100.370678708265
100.371054972825
100.371307499921
100.371205429631
100.371259618105
100.371373389273
100.370759956878
100.370354871904
100.370700284132
100.370246260465
100.369713405654
100.369018913853
100.368266158578
100.367290631826
100.36625203201
100.365708143991
100.367103661598
100.368278093849
100.369156094105
100.369916515535
100.370477300964
100.37093711527
100.371269481428
100.371055282634
100.371368385894
100.371533220128
100.371608556107
100.371597951086
100.371413372302
100.371505867425
100.371256227102
100.37136237902
100.372103187351
100.370733785358
100.372796759033
100.37320739908
100.374590285183
100.373246367216
100.372843853006
100.371643223695
100.371061768859