/*--------------------------------*- C++ -*----------------------------------*\
| =========                 |                                                 |
| \\      /  F ield         | OpenFOAM: The Open Source CFD Toolbox           |
|  \\    /   O peration     | Version:  v1612+                                |
|   \\  /    A nd           | Web:      www.OpenFOAM.com                      |
|    \\/     M anipulation  |                                                 |
\*---------------------------------------------------------------------------*/
FoamFile
{
    version     2.0;
    format      ascii;
    class       volScalarField;
    location    "1";
    object      p;
}
// * * * * * * * * * * * * * * * * * * * * * * * * * * * * * * * * * * * * * //

dimensions      [0 2 -2 0 0 0 0];

internalField   nonuniform List<scalar> 
80683
(
100.067938362796
100.069907607738
100.066747240884
100.071073583214
100.078100009013
100.078236172232
100.076289154781
100.076839649123
100.076824584223
100.077204440922
100.077701809083
100.07747060172
100.079195588538
100.078810962207
100.081351642521
100.081353426558
100.077924864509
100.073110680455
100.072024810918
100.071976395871
100.072980444277
100.072836610593
100.072053629452
100.073493768902
100.07994095326
100.079990814657
100.0742769114
100.072470702014
100.072365369638
100.071652504957
100.071520748902
100.072506213313
100.072456579277
100.074206732979
100.079755267525
100.079585625025
100.073388138027
100.072006721958
100.072739283714
100.072692788009
100.07181055844
100.071860219417
100.07298358115
100.077722426585
100.080993785112
100.080844822142
100.073902225448
100.073388160626
100.071194382376
100.070676367132
100.070603243983
100.070232600779
100.069698119784
100.068562237692
100.069653715505
100.070804890977
100.070967384215
100.070131651081
100.069097733165
100.067946087867
100.067574387539
100.068164660679
100.068090403345
100.067414545759
100.067967958717
100.069098099722
100.070074640977
100.071056444892
100.071028948941
100.069838129874
100.068739235732
100.069915457031
100.070341700363
100.070671768955
100.070674860236
100.071175975165
100.073613272527
100.07432111947
100.071715057016
100.074870773765
100.077988094139
100.079640621014
100.077483180537
100.077232502966
100.078396083439
100.076390564743
100.073911432258
100.069715996499
100.07501742133
100.063115169075
100.051087484539
100.056805777456
100.057925371173
100.070112986247
100.066012818128
100.067228059386
100.069383071905
100.067387364044
100.065973303435
100.065460140166
100.068034031918
100.069534146201
100.065470059955
100.064529771208
100.066866098892
100.064072340305
100.062953472941
100.063983499907
100.063987829388
100.063004484612
100.064087335933
100.066817471411
100.064488703466
100.065287776683
100.069771366671
100.068560190876
100.065795264808
100.066160931804
100.067489582145
100.069446055819
100.067180424838
100.065887199971
100.070435071648
100.070468597727
100.067470818291
100.071010859929
100.077246330617
100.082644707626
100.076011261297
100.075918152758
100.080199186512
100.095494877344
100.064108597909
100.06465031155
100.048527726055
100.022069852199
100.022980923466
100.018517861967
100.018921338539
100.02530370303
100.056056391046
100.068402660902
100.064510547393
100.06431338776
100.071212152993
100.057490327965
100.058241021507
100.05817110333
100.058364241193
100.068072473893
100.063224556888
100.063213432079
100.068018530983
100.058390013408
100.058212556102
100.058239223664
100.057323682067
100.056157228372
100.058209145999
100.056426257053
100.016928299247
100.020095215205
100.021092534815
100.020939595094
100.020140672687
100.020279244752
100.021733182139
100.022383948227
100.025707973477
100.022824340956
100.023833478624
100.027423646229
100.027427436683
100.023841971725
100.022781028677
100.025463239607
100.024968053794
100.018249055107
100.019965105731
100.026741533907
100.027173617305
100.026046648163
100.025917422527
100.027011338928
100.026886574067
100.025986550721
100.026365680377
100.026660377508
100.021435431103
100.022209531147
100.023411094795
100.023367972791
100.02209131402
100.021213643751
100.022136271237
100.021404022245
100.025745224035
100.027005390784
100.027720531951
100.027965356164
100.02712804679
100.027143721337
100.028048458878
100.027886195714
100.027216499811
100.027466992992
100.027667906594
100.027682968997
100.026948208792
100.026542989973
100.026480103569
100.026764069662
100.026306034435
100.02609402321
100.027233597278
100.025439456398
100.025260401769
100.02544340957
100.025595019324
100.025073420542
100.025025852277
100.025579894081
100.025549110138
100.02535440893
100.02560045247
100.025617402081
100.025643662948
100.025523667479
100.027305335274
100.027252405516
100.027545788898
100.027425845219
100.025462993961
100.023157001151
100.023154962708
100.02299116279
100.022966276784
100.022941334308
100.022911090283
100.022819044293
100.022825740659
100.023000521603
100.022985787452
100.023228506995
100.023231688014
100.02333097338
100.023304959367
100.023287726504
100.0254929556
100.02559557865
100.023304247475
100.021465678652
100.021311085056
100.021256423425
100.021076822989
100.021026860483
100.020812816408
100.021228370154
100.021214360175
100.020792318883
100.021021647221
100.021024146389
100.021264516067
100.021318214787
100.021475193934
100.021480297601
100.021472907261
100.019920347505
100.019866410091
100.019659336707
100.01953185523
100.019280751161
100.019218029477
100.018934578581
100.018739128244
100.018797861744
100.018986757966
100.019193665736
100.019238574228
100.019512233374
100.019640168695
100.019868065036
100.019923699311
100.018404396269
100.01839198705
100.0182195095
100.017891641015
100.017643258148
100.017250006628
100.017088690037
100.016904355509
100.016337627685
100.016354519173
100.016855609871
100.01707261045
100.017287752131
100.017660577752
100.017898633562
100.018256513199
100.016451755176
100.016759121506
100.016712002059
100.016309457156
100.015761749093
100.01532708837
100.014705220633
100.014360526919
100.014192082564
100.013221828089
100.013260559745
100.014171212067
100.014404803284
100.014898158873
100.01547265266
100.015897037781
100.013110422343
100.014080449628
100.014628308864
100.014507782858
100.013729434057
100.012692018861
100.012205316381
100.011207230502
100.010223422506
100.010154737332
100.008390782793
100.00850566736
100.010397595088
100.010518424858
100.011639809396
100.012596791139
100.008521232214
100.00829540087
100.010367805788
100.01150891873
100.011221151404
100.009700751515
100.007304406273
100.007489014558
100.005962430023
100.0031605313
100.004180130891
100.000913725649
100.000837552998
100.004401095816
100.0038661114
100.006956856165
99.9946955975109
99.9964913196099
99.9926185124435
99.996654940118
100.000815295655
100.000231524986
99.9953561651457
99.9908180521233
99.9946856926306
99.9930582729518
99.9845117074293
99.9879905339625
99.9851032407314
99.9851540840276
99.9886298094784
99.9861751438406
99.9958957965213
100.005294607656
100.007235853474
100.003816279596
100.012830825623
100.014575730584
100.013475147534
100.01042934057
100.000469191551
100.003766625057
100.00248144772
99.9934910356123
99.9874676245636
100.02162078312
100.045199576248
100.04566237754
100.023094889818
99.9888298994629
99.9883005521705
100.082571149942
100.165928737788
100.105942420032
100.106613281685
100.09363122092
100.079839322704
100.0715157839
100.067793393711
100.069107555178
100.075435829279
100.091373072937
100.080495887469
100.079019452895
100.087242808834
100.070134265625
100.063839149117
100.063923798003
100.068087887095
100.077528611983
100.091942453308
100.186233267834
100.206261948626
100.206767040705
100.187637214002
100.191212695196
100.185139732069
100.210539172977
100.253707297083
100.161235317603
100.169560838111
100.226914592318
100.190149351073
100.219710984061
100.246080122634
100.184478757612
100.182003555794
100.241361732614
100.213899612205
100.182785277702
100.218982714112
100.161276723149
100.154932977557
100.205229423122
100.181145484004
100.188754898623
100.284568678488
100.332033391827
100.298922919185
100.29907424771
100.332835985542
100.304160905057
100.286404167905
100.39620757116
100.425575384881
100.395601504232
100.414484537814
100.413877483818
100.368409739689
100.308882960772
100.344982884187
100.289174870103
100.397788875457
100.424988729671
100.398122184839
100.412074801105
100.438877491505
100.389533972054
100.32565892542
100.335018960661
100.261050837261
100.301720227274
100.382307227072
100.422098601381
100.443604599353
100.45621652254
100.46445434151
100.468840116353
100.470842300692
100.471776082473
100.472039995322
100.471940817109
100.471599527274
100.4711368941
100.470794159518
100.470801688746
100.471093043538
100.471565303614
100.472160824181
100.472831776279
100.473731799807
100.475134377217
100.478394123607
100.485096086929
100.499128093596
100.520874161038
100.558635517944
100.551237775039
100.489379218996
100.436845288042
100.383433838115
100.353054509889
100.374885005217
100.372920750272
100.371014515449
100.371655165208
100.37270873723
100.373691654219
100.374876714599
100.376446548829
100.378324141118
100.380303383426
100.382115017042
100.383482242112
100.384185523476
100.383524092798
100.382628849758
100.381465977896
100.380048160081
100.378374009057
100.376424608229
100.374294480017
100.372221838528
100.370394843498
100.368917892139
100.367768366153
100.366897521939
100.366236813444
100.365773310564
100.365546125601
100.365586461754
100.365952228353
100.366710125713
100.367919214956
100.369499248154
100.371131137329
100.372267364054
100.372513293662
100.372324923539
100.372519032356
100.372530774798
100.372578340652
100.372600430339
100.372640185034
100.372703886104
100.372735171218
100.372951928467
100.373087352695
100.37321251988
100.373180486063
100.373130617763
100.373012033239
100.372904781342
100.372760505175
100.372761779688
100.372695826149
100.372926765851
100.373058689752
100.373101933072
100.372963184327
100.372837187206
100.372638019897
100.372590342389
100.372540562621
100.372510265163
100.372500765434
100.372451758674
100.37244618247
100.372318391648
100.37240050517
100.372180441355
100.37237389577
100.372367307781
100.372411966684
100.372427716589
100.372464448483
100.372489417458
100.372519123572
100.372701392863
100.372825430024
100.372964046121
100.372791969263
100.372671763154
100.372555903154
100.372408049367
100.372409414314
100.3723862466
100.372336254853
100.372319035271
100.372285678866
100.372279182464
100.37211760693
100.372214162975
100.372015377065
100.372200229154
100.372203395457
100.372235202958
100.372250336704
100.372302422874
100.372331169393
100.37233965701
100.372448543277
100.372545500349
100.372620321272
100.372627420173
100.372522153933
100.372366246011
100.372208675151
100.372191480107
100.372139961078
100.372359866764
100.372492574931
100.372418908768
100.372348056457
100.372252310484
100.372227808483
100.372209283936
100.372171134479
100.372152749674
100.372122659623
100.372103176201
100.371945724026
100.371997190148
100.371854787665
100.3720257006
100.372044125562
100.372061404988
100.372097136804
100.372140700841
100.372148795236
100.372150957497
100.372246555985
100.372304624859
100.372161004139
100.372124564677
100.372059847175
100.372081678484
100.372062348238
100.372014090948
100.371979292327
100.371972868825
100.37193151707
100.371785452512
100.371801206714
100.371713106791
100.371863694619
100.371899635207
100.371911142301
100.371947950363
100.371974608427
100.371989226013
100.371958619896
100.372059254775
100.372041372817
100.372079550063
100.371976735841
100.371970971649
100.371890220384
100.371926609929
100.371915246963
100.371951641414
100.371886719033
100.37192870595
100.371881289264
100.371835814995
100.371824106098
100.371784859402
100.371661854797
100.371605810767
100.371598766967
100.371718778059
100.371726682559
100.371751991749
100.371775193057
100.3718105115
100.371821313387
100.371887870608
100.371813882558
100.371913002805
100.371733307603
100.371667956642
100.371524581341
100.371601112131
100.371527566811
100.371774981753
100.371772563217
100.371829181928
100.371736253046
100.37177157459
100.371815980019
100.371756954045
100.37166347773
100.371707686424
100.371658968814
100.371641685413
100.37151864241
100.371479048452
100.371271918312
100.370779956215
100.371289963742
100.371487913863
100.371501418861
100.371590540455
100.371613426437
100.371649062067
100.371713340911
100.371728576313
100.371713797501
100.371778695668
100.371724974503
100.371642535461
100.371587754778
100.371504912676
100.371666051577
100.371520276965
100.371667601119
100.371724296627
100.371609358968
100.371662737932
100.371655241044
100.371610727704
100.371568595562
100.371548145423
100.371461255599
100.371434976308
100.371238650971
100.370648765804
100.371269934323
100.371434906666
100.371461859596
100.371517513954
100.371538536822
100.371572899856
100.371603932767
100.371629524962
100.371577645826
100.371635488949
100.371513422402
100.371560126708
100.37165266368
100.371685526465
100.37164473156
100.371575487018
100.371550942345
100.371194116542
100.371067453712
100.37130243983
100.371268904955
100.371537725109
100.371307948212
100.371566114417
100.371616913592
100.37154768666
100.371560757617
100.371530226377
100.371507308079
100.371500575833
100.371458364041
100.371450047685
100.371406298645
100.371250746344
100.370715703177
100.371320719516
100.371398289988
100.371449616557
100.371480657809
100.371468516501
100.371556490875
100.371565791167
100.3716097947
100.371587105415
100.371588895548
100.371636756555
100.371695622823
100.371768203636
100.371820700646
100.371733701116
100.371751417253
100.37180843347
100.371874193331
100.371942538749
100.37202143513
100.372096336563
100.372179881655
100.372256634319
100.372342152904
100.372412699781
100.372501079861
100.372616463469
100.372661705318
100.372695651024
100.372721019352
100.372792288662
100.372841730603
100.373076879154
100.373212929613
100.373329613318
100.373332593202
100.373264770874
100.373160811964
100.372924260972
100.372736432012
100.372590509014
100.372461438111
100.372351414743
100.37237847602
100.372445637614
100.372649565916
100.37277677616
100.373029005077
100.372906086048
100.372745537459
100.372514372521
100.372388572933
100.372322424375
100.37216698611
100.37203497846
100.371884627304
100.371768096578
100.371806045343
100.371823632731
100.372017710612
100.372220995321
100.372340680697
100.372446309887
100.372552417006
100.372486494509
100.372354193207
100.372175237794
100.372039716916
100.372047656178
100.371962998323
100.371820191201
100.371741667505
100.371531386257
100.371261291188
100.370999536804
100.370894270166
100.370704970267
100.370848254134
100.370923778132
100.371179432986
100.371505989651
100.371301762536
100.371135679814
100.370961768836
100.370774163482
100.371031308158
100.371004204462
100.371357087454
100.371376006984
100.371289608584
100.371478469309
100.371532786712
100.371720088958
100.371637533572
100.371690253886
100.371730699247
100.371768922416
100.371923966627
100.371983171933
100.372062442745
100.372125421464
100.372205349039
100.372273012131
100.372355743628
100.372415418289
100.372475126843
100.372516914296
100.372568639136
100.372618647041
100.372573986153
100.372698628164
100.372752603264
100.372791159779
100.372795358133
100.372897698286
100.372969329911
100.373213436375
100.373324087213
100.373450483279
100.373423194656
100.373408737039
100.37343934244
100.373285980835
100.373101799262
100.372976495893
100.372888180996
100.37260932721
100.372283675203
100.372111299982
100.371979184094
100.371776980385
100.371616844028
100.371478183527
100.371353688651
100.371208335374
100.371100435082
100.370969821019
100.371061152512
100.371193474353
100.371402368182
100.371548626594
100.371687954331
100.371788712211
100.371931998002
100.372063734828
100.372202830807
100.372331414362
100.372201000216
100.372371627982
100.372607654258
100.372579379845
100.372751554731
100.372681295608
100.372564540271
100.372397625145
100.372469406105
100.372572667331
100.372678436973
100.372664660756
100.372786745746
100.372835767027
100.372876903831
100.372890140415
100.37301407434
100.373078758977
100.37331591005
100.373417679414
100.373516668132
100.373507565194
100.373529950619
100.373384691625
100.37323472375
100.372991378227
100.372716538808
100.372445627959
100.371946176006
100.37173137454
100.371556545351
100.371383827944
100.371198755278
100.371040789268
100.3708526739
100.37069665065
100.370558952835
100.370748381252
100.37097049536
100.37120013044
100.371500603814
100.371567994194
100.371770837327
100.371619205982
100.371812631317
100.371975413998
100.371834871238
100.372056385738
100.372473625242
100.37269597282
100.372664202133
100.372622174158
100.37271789982
100.372777625482
100.372870709335
100.372908421576
100.372960424592
100.372977589041
100.373106524862
100.373170878042
100.373398508167
100.373506971939
100.373622165547
100.373608619302
100.373635002616
100.373492393873
100.373372253127
100.373147024459
100.372856258906
100.372613846461
100.37215035349
100.371963056466
100.37167147459
100.371475512785
100.371426468008
100.371194070046
100.371026084996
100.370848931379
100.370690647484
100.370457214768
100.370225710086
100.370011521897
100.369828737493
100.369633882282
100.369366458058
100.369125533719
100.36942342909
100.369735547349
100.369925376289
100.370097145289
100.370279044201
100.370477111903
100.370730201316
100.370945026824
100.371094807833
100.371241807419
100.371463022875
100.371308115801
100.371142769542
100.370758530896
100.370806456842
100.37098747753
100.370986458842
100.371431532878
100.371686327766
100.372263684022
100.37254234224
100.372500469569
100.372484707375
100.372584821784
100.372647942994
100.372459878388
100.372584097182
100.372677627993
100.372613739672
100.372768315426
100.372854531626
100.372968967552
100.372987994044
100.373051362717
100.373059169445
100.373197386834
100.373272717602
100.373492671522
100.37360684139
100.373757846847
100.373681492759
100.373766650471
100.373625014647
100.373495925581
100.373269208131
100.372998901021
100.372749740717
100.372299296677
100.372100446101
100.371703929045
100.371649579678
100.37148937258
100.37152323149
100.371438576582
100.371532983802
100.37135185137
100.371169389806
100.371014445788
100.370843523784
100.370647970669
100.370398326054
100.370159831853
100.369922157384
100.369682403811
100.369365174151
100.36900623922
100.368674867159
100.368404733517
100.367984554375
100.368237067821
100.368628195978
100.368912743411
100.36925594394
100.369508696586
100.369720710284
100.369974137734
100.370220265763
100.370474405949
100.370645947256
100.370814493503
100.370973326231
100.371199677167
100.371168603587
100.371073798193
100.370914481314
100.37082356952
100.370744477285
100.370964077548
100.370538467292
100.370243187812
100.36986207275
100.369460970037
100.369039591706
100.368521233824
100.367793252938
100.366759407984
100.365248901269
100.364529211879
100.364787995348
100.365579452778
100.366419447348
100.367120958403
100.367865021604
100.368456490541
100.369009567708
100.369494194823
100.369913388055
100.370268283682
100.370823763705
100.369214848855
100.368714643721
100.368371216264
100.368035353666
100.367681779173
100.36732316727
100.366778975068
100.366151838851
100.365097442146
100.364107281411
100.361059312675
100.358553756744
100.362484340653
100.361491825617
100.360772875613
100.357041618955
100.356971099513
100.356923982522
100.359820191186
100.361253364386
100.362128235345
100.36348925052
100.364344685672
100.365765684185
100.366823673953
100.36754175702
100.368261630652
100.368813558529
100.369354734333
100.369791704844
100.370183293235
100.370529303761
100.370963652606
100.370797976385
100.371446481547
100.36964822227
100.372952231283
100.373172334041
100.373303356838
100.373462955341
100.373614657935
100.373372927304
100.372714454328
100.371819285457
100.370825098767
100.369514445365
100.367631582245
100.365990639675
100.364748309453
100.365753950482
100.36615266598
100.362198745937
100.360028939478
100.359735985941
100.34888937303
100.352336977083
100.35141837928
100.355001844987
100.357793972355
100.366051335201
100.368018693701
100.37035258186
100.370210330473
100.370372213072
100.370487566264
100.370754855718
100.371051652435
100.371341217737
100.371673704719
100.371986162175
100.370596191904
100.368924993646
100.367387638764
100.366278011208
100.365652264507
100.365426383449
100.365526536863
100.365884621446
100.366440813068
100.367164067494
100.368081694422
100.36928004699
100.370807133781
100.372667278865
100.374745599384
100.37687050687
100.378830104347
100.380531762078
100.381984846481
100.383182325653
100.38411191915
100.384805370102
100.385293306447
100.384644038933
100.383357990806
100.382941248779
100.382334859112
100.381512482602
100.380434904548
100.379125699786
100.377558087418
100.375679312683
100.373601025239
100.371591138858
100.36984749294
100.368462694958
100.367396248067
100.36660650235
100.36604707386
100.365716791077
100.365636976374
100.365827077157
100.366330308635
100.367216704811
100.368523555052
100.370132305012
100.371690376985
100.372512724761
100.372707953079
100.372827211197
100.372790791934
100.372783940224
100.372923294595
100.373037509389
100.373049954535
100.373139275673
100.373157274769
100.373334239186
100.373427480689
100.373604097931
100.37375765889
100.373775649033
100.373841219189
100.373912929262
100.373906300613
100.373777420778
100.373655465847
100.373378010012
100.373171799019
100.372983486466
100.372877396968
100.372578032458
100.372261591162
100.371877947771
100.371778989049
100.371621797069
100.371586542308
100.371695483389
100.371614688923
100.371875904099
100.371760557764
100.371571173531
100.371692365125
100.371472415141
100.371306541771
100.371145188293
100.370926108914
100.370684352915
100.370445682291
100.370176599126
100.369868941172
100.369596427135
100.369143856992
100.369348704861
100.369715256596
100.370021408137
100.370277958193
100.370516587101
100.370767458517
100.3709813926
100.371144530889
100.371322442499
100.371545451695
100.371409515252
100.371440646659
100.371485950116
100.371274458807
100.370932554627
100.37063443994
100.370534048878
100.370696539045
100.371021249325
100.371234355815
100.372441737678
100.372478548266
100.373034646935
100.372844474444
100.372658782724
100.372993320053
100.372962874226
100.373084944507
100.373240897324
100.373184609702
100.373291315221
100.373346434906
100.373571296666
100.373858717144
100.374032158697
100.374127826657
100.374103871144
100.374024801419
100.373934121109
100.373819635483
100.373550756971
100.373338698649
100.373005904066
100.372701165569
100.372403308753
100.372033662461
100.371910875606
100.371625415431
100.371740135307
100.371585383874
100.371724906131
100.371807526376
100.372007983988
100.371921529338
100.372174008504
100.372003438659
100.372027343748
100.371883031856
100.371759322706
100.371619688713
100.371448316473
100.371252826297
100.371057348798
100.370835895967
100.370577819033
100.370293412475
100.369997435742
100.369653734781
100.369221220879
100.368742198649
100.368381633899
100.367943100807
100.368268291437
100.368718799768
100.369163223898
100.369414900665
100.369742255424
100.370055859414
100.370347221159
100.370602155998
100.370839935722
100.371060732307
100.371254379936
100.371431202509
100.371620636187
100.371836568967
100.371979006526
100.371859772965
100.371752561688
100.371745635526
100.371462058199
100.370553531627
100.36982682095
100.36956195699
100.369788235578
100.370086592143
100.370745020709
100.371203925008
100.37111407964
100.370220991323
100.372046160866
100.370360461588
100.372560148457
100.37272721946
100.374100044543
100.3723746774
100.371726669552
100.371055429825
100.370235335463
100.369481185066
100.368858928232
100.368341011566
100.367939888749
100.367579584115
100.366987795312
100.367226249838
100.365230915358
100.364772912863
100.364238031891
100.363258948529
100.360832643302
100.359620009095
100.358990825208
100.359137195154
100.349580204298
100.353991374229
100.349975362886
100.348951558329
100.352309806495
100.353800507007
100.351835762995
100.352451617359
100.352502878575
100.358008191827
100.355920551255
100.357975303895
100.356255440151
100.354263970772
100.355225988837
100.35768179317
100.359116779491
100.360220765804
100.360551000829
100.358163196051
100.359054493869
100.361508904038
100.362828941108
100.364642907039
100.364276729869
100.365730936923
100.366810872077
100.367854022718
100.368627536573
100.369312621625
100.369819590578
100.370233165431
100.37057141055
100.370896673446
100.371047699977
100.37106862849
100.371202467972
100.371330996015
100.370480441879
100.369541607082
100.371949359163
100.373082473816
100.373227237292
100.373069256923
100.373039497118
100.37327866497
100.373259295993
100.373466504123
100.373434928645
100.373538908063
100.373615267138
100.373843918296
100.373951037209
100.374244052631
100.374407166792
100.374363102426
100.374401983212
100.374326468856
100.374272842119
100.374241592552
100.374133323582
100.373992680621
100.373749600555
100.373539264413
100.373442434057
100.3730251008
100.372815834406
100.37258147992
100.372489566956
100.372261290817
100.372056803702
100.371775985124
100.371855054223
100.371835840005
100.371967984038
100.372119799998
100.372034158857
100.372236008282
100.372163442957
100.372313439274
100.372200913166
100.372100330986
100.371952590216
100.371953383682
100.371747309797
100.371599089575
100.371416801245
100.371226297681
100.370994425153
100.370768717111
100.37048256784
100.370180215753
100.369875896009
100.369511623369
100.369079417592
100.368731889148
100.368943613852
100.369388876722
100.369751327684
100.370065899268
100.370368987045
100.370652753796
100.370887611583
100.371107376858
100.37131451549
100.371508454375
100.371673139119
100.371839111344
100.371854296695
100.371905997366
100.37171957253
100.371513833453
100.371740333532
100.370970943386
100.371220552291
100.370450758094
100.370898729163
100.371284423602
100.371366531436
100.371622179773
100.371513707275
100.371779817598
100.369917101695
100.373650707891
100.37516727394
100.373135194032
100.37188833337
100.372008799999
100.37045700473
100.369761129151
100.368905495005
100.368112391258
100.367641630248
100.367187770122
100.366732187333
100.366297294063
100.365874553834
100.365394101108
100.365558540936
100.366069114825
100.366677877271
100.367149946314
100.367773787767
100.368314771115
100.368917310883
100.36960796023
100.370257253571
100.370974261148
100.371801605302
100.371077718709
100.37093346982
100.371782680458
100.372163040043
100.372882512372
100.372894616266
100.372823724698
100.373052555804
100.373046898202
100.373233806999
100.373251760522
100.373272597111
100.373448255
100.373473404429
100.373670092455
100.373971498275
100.374133267113
100.374229356602
100.374215386288
100.374215039437
100.374176529733
100.374056820388
100.373794525084
100.37340672746
100.373186908936
100.37345087229
100.373594872427
100.373763596967
100.374070170651
100.374209895619
100.374318667203
100.3743961991
100.374259316422
100.374124866032
100.373903995447
100.37384362482
100.373735090722
100.373492856507
100.373468575907
100.373397477584
100.373415110468
100.373193825752
100.373214066802
100.372999992018
100.372981903468
100.372825232547
100.373135203169
100.373110041197
100.373306410556
100.373337762705
100.373390405221
100.37339583151
100.373044698828
100.373148790449
100.373275807469
100.373406822935
100.373654155669
100.373701670848
100.373871516498
100.374223626736
100.37440567942
100.374443992792
100.374394809082
100.374238561112
100.3741609917
100.373998747593
100.37393783964
100.373842807989
100.373723145741
100.373560843704
100.373342183778
100.373020149879
100.37290175353
100.372533819996
100.37231985114
100.372171848903
100.371884132843
100.371973828131
100.371850835598
100.372121825395
100.37199635062
100.372113280466
100.37218127509
100.372306327334
100.372259645499
100.372400016548
100.372347729385
100.372418694295
100.372325722439
100.37221173551
100.372074520896
100.371902251917
100.371720902691
100.371546757901
100.371339994049
100.371135372604
100.370875749729
100.37063629817
100.370332716349
100.370008139284
100.369682926541
100.369286065572
100.3688165215
100.368458431005
100.367939078251
100.367285027646
100.366611618963
100.365975780582
100.365070793146
100.364294863656
100.365192967588
100.366034411964
100.366695508112
100.367382639687
100.367967034409
100.368397806781
100.368579782327
100.368209035024
100.367889767832
100.367276280252
100.36659974267
100.365866426396
100.364884728988
100.365711338705
100.366270118861
100.366964657732
100.367509684306
100.367863167143
100.367231900789
100.366651314038
100.365835629824
100.366397120329
100.366945901552
100.367498530561
100.368103457276
100.368611532825
100.368997325372
100.369161191392
100.368665072862
100.368222328731
100.367816112914
100.367372160965
100.366653338203
100.367149858006
100.367753469185
100.368058235989
100.368409777703
100.368797390148
100.369313574111
100.369692415722
100.369972505189
100.370215424874
100.370450983041
100.370701112401
100.370902576964
100.37107203149
100.371237465595
100.371172083247
100.370912825237
100.370600780673
100.370259034243
100.370406303601
100.370519039858
100.37074733544
100.371115405603
100.371376146976
100.371264894065
100.371322173555
100.371435147336
100.370798266113
100.370392092513
100.370750403783
100.370282223325
100.369732877373
100.369012232055
100.368223875143
100.367201070076
100.366101049399
100.365594729988
100.367050819823
100.368270239193
100.369180117221
100.369962854962
100.370538256049
100.371009241604
100.371349675507
100.371119557416
100.371443131632
100.371608984877
100.371699537317
100.371685296417
100.371487413682
100.371570372305
100.371332012627
100.371417864088
100.372205874251
100.370761945806
100.372926637636
100.373343338668
100.374769759883
100.373317429363
100.372698131266
100.371352117415