/*--------------------------------*- C++ -*----------------------------------*\
| =========                 |                                                 |
| \\      /  F ield         | OpenFOAM: The Open Source CFD Toolbox           |
|  \\    /   O peration     | Version:  v1612+                                |
|   \\  /    A nd           | Web:      www.OpenFOAM.com                      |
|    \\/     M anipulation  |                                                 |
\*---------------------------------------------------------------------------*/
FoamFile
{
    version     2.0;
    format      ascii;
    class       volScalarField;
    location    "0.7";
    object      p;
}
// * * * * * * * * * * * * * * * * * * * * * * * * * * * * * * * * * * * * * //

dimensions      [0 2 -2 0 0 0 0];

internalField   nonuniform List<scalar> 
81489
(
99.9987507133295
100.00357492295
99.9967856805146
100.001054175311
100.006369308593
100.003043332678
100.002665708029
100.002717820617
100.002887936208
100.002503860921
100.003108993634
100.006195209724
100.010039512478
100.008873988788
100.007076057105
100.008080530149
100.005228000914
100.00284456335
100.002862598475
100.005241454097
100.008054186748
100.007031746088
100.008839289325
100.009993444009
100.006172556723
100.003077629092
100.002472100504
100.002861996283
100.002689628028
100.002633588476
100.003008866026
100.006348304288
100.010159399177
100.0090067661
100.007068331727
100.008080313991
100.005268674707
100.002908765623
100.002891996272
100.005255624923
100.008104107397
100.007115729004
100.009046534746
100.010199059983
100.003357382001
100.002645534202
99.9983684355688
99.9988796059099
100.000236445902
100.000655483657
100.000683158969
100.000258969522
99.9988602970376
99.9983329951399
100.002615064399
100.003328414754
100.001051032518
99.9999843265448
100.000684707744
100.000922640189
100.000876128737
100.000549977175
100.000211069078
100.001186373818
100.003318859697
100.002592403622
99.9983083523771
99.9988188764896
100.000215330047
100.00064023567
100.000610473758
100.000185421793
99.9988420111639
99.9983466853558
100.002624388842
100.003345708534
100.001189854834
100.000225484346
100.000567307364
100.00089467007
100.000941752079
100.000701103455
100.000000560144
99.9967624066213
99.9988946137231
99.9988033665323
99.9874993598813
99.9898941264312
99.9900278675407
100.00033694052
99.9949579793338
99.9930431362244
99.9954637083105
99.9976200220053
99.9976501228979
99.9954663458981
99.9929936993345
99.9949169479612
100.000306482438
100.000315781416
99.9967890449004
99.9967505282483
99.9988880948267
99.9977328522512
99.9977092490662
99.9989374067549
99.9968335526409
99.996675029243
100.000267424603
100.000315752766
99.9949036074066
99.9929463884866
99.9954175234826
99.9976043319943
99.9975763876324
99.9954056298676
99.9929908413002
99.9949426041369
100.00034556086
100.000302689941
99.9966741283449
99.9968470754031
99.9989451756473
99.9977276522493
99.9977521024903
99.9948141644647
99.9947657333466
99.987542790431
99.9577428848549
99.9576630005608
99.9520647036483
99.9530374523825
99.958202589394
99.9885844183715
99.995614112577
99.9949486711156
99.9949444456174
99.9955399040233
99.9981714974796
99.9900260866782
99.9898554170129
100.003585760851
99.9987955457249
99.9947862678877
99.9947402644815
99.9985185104515
100.003166302574
99.9898457680852
99.9900290319593
99.98852664609
99.9885647396478
99.9900342648348
99.9898848874639
99.9521990317053
99.9519775445674
99.9534852138873
99.9534730822338
99.9519587061916
99.9524854912294
99.9533106284809
99.9533310906168
99.9582514162685
99.9885482724314
99.9826472646731
99.9659380271307
99.9595069714662
99.9593463148516
99.9568906318338
99.9579442258781
99.952501394466
99.9531361531758
99.9521174003006
99.9576868615518
99.9874702509585
99.9875136153261
99.9577673811629
99.9522492585655
99.9532132467125
99.9582919849186
99.9582436388858
99.9531170069302
99.9525030160778
99.9579595789561
99.9578296201534
99.9571050237747
99.9571139713149
99.9578559290205
99.9579725438159
99.9568978116465
99.9582169841023
99.9582103757341
99.9588349861499
99.9587955340436
99.9578422671709
99.9519751901887
99.9534946277813
99.9535089442856
99.951997347713
99.9525188381024
99.9533647670523
99.9533436243667
99.9569084724235
99.9582199440961
99.958853491553
99.958802446453
99.9582933367066
99.9582960170445
99.9588173951708
99.9588548054855
99.9567711146052
99.9565830445768
99.9565800519909
99.9567598050214
99.9567029468554
99.9565704030031
99.9582777657274
99.9571111450985
99.9571019734098
99.9578171369522
99.9579297765019
99.9569016250121
99.9582119496814
99.9565841051759
99.9565901197
99.9567834887392
99.9567296273338
99.9566035350565
99.9565995699975
99.9567285771234
99.9543664673088
99.9543905277205
99.9543091138576
99.9543023052807
99.9543682135802
99.954331361724
99.9542916327781
99.9542937170864
99.9565728313866
99.9582740784661
99.9587829032369
99.9588258342599
99.9567581550583
99.954369353783
99.9543090353543
99.9543190022356
99.9544008574668
99.9543779500902
99.9543432621778
99.9543362546568
99.9524156354206
99.9524360226554
99.9524388876822
99.9523641344646
99.9523521072676
99.9523991450312
99.9523840856383
99.9523415676952
99.952341827065
99.9523752998893
99.954332048008
99.9567044270751
99.9572741402356
99.9546377308001
99.9526578672379
99.9523983538714
99.9523575038726
99.9523768731553
99.952452819078
99.9524557350147
99.9524222764658
99.9506731397125
99.9506690407804
99.9506731171976
99.950659659469
99.9505956056711
99.9505778782705
99.9505905370947
99.950579520105
99.950541297883
99.9505439318141
99.9505677817055
99.9505894091337
99.9505796656286
99.9506133936604
99.95067844207
99.9506945274831
99.9487926562223
99.9487827221357
99.94877673583
99.9487646662688
99.9487470644641
99.9486747197869
99.9486493776985
99.9486278675755
99.9486064670509
99.9485653744364
99.9485738653753
99.9485976176938
99.9486252725379
99.9486422458095
99.9487045802517
99.9487678855532
99.9465049738791
99.946514764518
99.946478966176
99.9464677911825
99.9464533394762
99.9464287938355
99.9463133387627
99.946280303286
99.9462639375679
99.9462074398626
99.9461194467446
99.9461372647725
99.946190223017
99.9462192870733
99.9462475774291
99.946373554966
99.9431702592832
99.9433585346228
99.9433630064484
99.9432988562647
99.9432488111618
99.9432283010057
99.9432003921583
99.943056041451
99.9429817440528
99.9429578115433
99.9428422147944
99.9426934700705
99.942716432726
99.9428143027143
99.9428318125585
99.9429036311585
99.9378056884073
99.9382363791656
99.9381900856115
99.9381343820992
99.9382640660297
99.9382450808295
99.9380699481787
99.9379819072112
99.9380960163339
99.9379146618625
99.9375736426859
99.9373342906516
99.9374761668702
99.937485308191
99.93731748867
99.9373519176662
99.922590073056
99.9243637500731
99.9246901002953
99.923387910897
99.9234040591093
99.9252919270626
99.9253127949764
99.9234620331736
99.9233237230527
99.9245924295747
99.9241159867699
99.9223975245514
99.9220503329312
99.923467910366
99.9234644622685
99.9222104786885
99.9355215925948
99.9366382172746
99.9338551326396
99.9341958788736
99.9378310796351
99.937704732211
99.9343730059246
99.9344210431403
99.9377430809376
99.9379070586541
99.9342230167563
99.9334923214984
99.9361668481508
99.9352492479034
99.9317629057091
99.9318925192172
99.989822672438
100.04338110804
100.000772286549
100.001623990845
100.045120594006
99.9920398502123
99.9918183553165
100.046054926005
100.003124155092
100.003995033843
100.047881337143
100.080288113502
100.07995001242
100.047597957556
99.9939331172217
99.9938982655781
100.118032439355
100.217870145411
100.175483109786
100.175600368704
100.148336249347
100.141823577079
100.140342335798
100.00317118321
100.046059756695
100.076924267201
99.9919622031148
99.9909963080805
100.044364460221
100.000775076671
100.000297206648
100.043104260922
99.9897442412211
100.074761658974
100.07489165662
100.168665738765
100.14299260199
100.13800659002
100.137359213995
100.143394235441
100.171491311655
100.1722121047
100.145578268303
100.140741604561
100.141834800779
100.148300304201
100.240416290062
100.279815497462
100.258658255705
100.258724858576
100.2800112766
100.269438155096
100.24037447189
100.335304900699
100.369956687983
100.343741418092
100.33379817118
100.333880956219
100.341862088575
100.277932559129
100.238355306856
100.269342659267
100.334549109612
100.368896475921
100.389947135283
100.396178730947
100.39821954266
100.402089349449
100.403154465631
100.40243850298
100.401611277118
100.401043330305
100.400651471374
100.400469258641
100.400536392963
100.400795313265
100.401130794985
100.401458796837
100.401822499939
100.402294528491
100.403163663092
100.405003605889
100.408935753544
100.416523909962
100.431271636561
100.454944716902
100.495091912219
100.492215630694
100.428653299725
100.372110696801
100.314902868812
100.282635581686
100.303535760326
100.302890141969
100.300601999413
100.300894855072
100.301966833919
100.30305701882
100.304305157157
100.305916698578
100.307843013407
100.309874195682
100.311736630874
100.31316120261
100.313908754292
100.312750310868
100.311311006692
100.309661887026
100.307930017069
100.306182656416
100.304430793073
100.302728363373
100.3011756256
100.299876072506
100.298841771109
100.298044389556
100.297459876508
100.29703254278
100.296724365455
100.296519813434
100.296416273346
100.296386468743
100.296395175056
100.296435096487
100.29650883486
100.296911161747
100.29842799053
100.300022713858
100.301376331522
100.301791277763
100.301729139033
100.301794120275
100.301685097878
100.301740953938
100.30160985597
100.301569717055
100.301453854344
100.301300851243
100.301045883352
100.300776545247
100.30085408547
100.301042648173
100.301413610332
100.301342169
100.301146439261
100.30134889989
100.30148719529
100.301578651839
100.301627248686
100.301742158937
100.301681504158
100.30176125467
100.301695548833
100.301746133569
100.301418479986
100.300803292662
100.301532846612
100.301741858972
100.301697720838
100.301751213958
100.301691650585
100.301749678845
100.301654669096
100.301610443631
100.301527962614
100.301400269802
100.301555804659
100.301420602675
100.301642129474
100.301862105126
100.301820703605
100.301776022633
100.301598801899
100.301652522366
100.301695944765
100.301766144243
100.301714379283
100.30175498282
100.301705423091
100.301750539025
100.301502769569
100.301241455272
100.301667409578
100.30176752993
100.301745506868
100.301776889497
100.301744222717
100.301798262402
100.301778010465
100.301743527602
100.301797825533
100.301841707907
100.302001644404
100.302108343022
100.302122171705
100.30185374394
100.301645632115
100.30201065395
100.302299734913
100.302203496488
100.302340171509
100.302319806425
100.302165684094
100.301954373074
100.301994090232
100.301883092957
100.30179443922
100.301804169998
100.301785050652
100.301812419078
100.301706537365
100.301751496584
100.301289801054
100.300733618904
100.301477209363
100.301732402009
100.301767998635
100.301839707449
100.301897976154
100.301866662649
100.301927290368
100.302004617941
100.302057074286
100.302044269285
100.302073176896
100.30231987797
100.302478131916
100.302519213955
100.302443504161
100.302620404448
100.302811795082
100.302706654223
100.302620401016
100.302443909478
100.302194228816
100.302121900091
100.30213537373
100.302039947423
100.301967286699
100.301898562617
100.301946413312
100.30194613864
100.301838244866
100.301836399228
100.301510956916
100.301313765235
100.301744868684
100.301922517176
100.301927348949
100.302020047028
100.302018862673
100.302087501305
100.302117062418
100.30221556425
100.302276005056
100.302364540944
100.30261257766
100.302861147686
100.30279968206
100.30288123296
100.302696549831
100.302399175918
100.302422346442
100.302759718503
100.303019836918
100.303097554683
100.302998810801
100.30278237282
100.303035397551
100.303125286543
100.303187947111
100.303223787777
100.303273966348
100.303205579672
100.303094370656
100.302843952822
100.302476112755
100.30241292932
100.302316677545
100.302218836876
100.3021640687
100.302168478637
100.302092395141
100.302019937061
100.302018916199
100.301733720028
100.301725121252
100.301988828136
100.30210026352
100.302112285213
100.302162008383
100.30229126729
100.302260965912
100.302346216927
100.302354577178
100.30238321542
100.302445973296
100.302555464995
100.302907083292
100.303149785168
100.303204469677
100.30316639079
100.303125577703
100.302953773916
100.302971694508
100.302712125058
100.302568472198
100.302472067591
100.302408116846
100.302354268225
100.302287143685
100.302309589555
100.302282932906
100.302255399298
100.302171343753
100.301922778158
100.302081357254
100.302159954606
100.302222255116
100.302341710053
100.302335776734
100.302360132317
100.302450715257
100.302538071138
100.302588892646
100.30268984505
100.302994842635
100.303158823327
100.303155166581
100.303050180585
100.302814036607
100.303068291186
100.303064092871
100.30322196652
100.303235046721
100.303132205487
100.302999461213
100.302768414065
100.302681295268
100.302558473793
100.302598596746
100.302530133057
100.302452634685
100.302468876171
100.30240687679
100.302318983256
100.302347158672
100.302337545152
100.30197340756
100.302062656345
100.302269315047
100.302165756193
100.302421798164
100.302396240554
100.302509164238
100.302482428885
100.302556244461
100.30261164297
100.302685973534
100.302786529189
100.302828056212
100.303036879441
100.303212939829
100.303154504688
100.303173398009
100.303022719014
100.303034015094
100.303189313685
100.303295338807
100.30323327561
100.303359633016
100.303396112671
100.303414376268
100.303272474846
100.303119230861
100.302886865764
100.302806923673
100.302754210665
100.302706860245
100.302634362956
100.302582371361
100.302664844809
100.30249285359
100.30252060762
100.30241715186
100.302364916618
100.302034973842
100.301427895894
100.300691662017
100.301623388006
100.30098541301
100.300275688619
100.299457504115
100.298513265234
100.299987922339
100.299234459634
100.297597623101
100.296764232663
100.296385518018
100.296230235953
100.296201291773
100.296245941578
100.296375769902
100.296596801828
100.296905062858
100.297315085954
100.297866506508
100.298611605768
100.299594961351
100.300860145565
100.302388430452
100.304066950581
100.30575974252
100.30741447031
100.309039665068
100.310583411715
100.311920205414
100.312998639885
100.313753760396
100.314711373292
100.315210500736
100.31438668038
100.313187983425
100.311693167085
100.309985515296
100.308195457812
100.306402533899
100.304629514638
100.302925688693
100.301370737473
100.300053888094
100.298988452376
100.298154561944
100.297543290329
100.297101439146
100.2967922585
100.296602626072
100.296529732495
100.296539316407
100.29657887987
100.296603589533
100.296588314735
100.29663927272
100.298064451095
100.299590059151
100.301141561171
100.301740587569
100.301756116403
100.301768018585
100.301706875533
100.301693295921
100.301575948421
100.30156553626
100.301431403749
100.301285646601
100.301048045228
100.300760901468
100.300764933791
100.30033757098
100.299778758246
100.29912428537
100.299276438625
100.299580510362
100.299954606503
100.30048274078
100.301005918868
100.300856967757
100.300447825597
100.300070747131
100.299865524832
100.300385165841
100.300553927223
100.300892831574
100.301287081814
100.301475306845
100.301799069484
100.301524675776
100.301282707368
100.30092434846
100.300329556941
100.299410034306
100.299938478707
100.300672917283
100.300673372495
100.301196741725
100.301464252978
100.300980235383
100.301397565183
100.301730537276
100.302192581577
100.30213399178
100.301924059207
100.302313269718
100.302490768025
100.302738893248
100.302384024202
100.3020141838
100.301542454104
100.300703970996
100.301093838717
100.301592427706
100.301764956927
100.302342804942
100.302583252711
100.301997477809
100.302150372013
100.302555482346
100.302651716203
100.30300527017
100.302944168491
100.302606769742
100.302734802214
100.302681391174
100.302518807044
100.302264475411
100.302215508525
100.302166178505
100.302112378846
100.3019935113
100.301906526548
100.301798635203
100.301750432932
100.301764576578
100.301762113269
100.301721594977
100.301711390409
100.301705217481
100.301725744759
100.301688123324
100.301778369991
100.301735891415
100.301820933897
100.301668342499
100.301734829836
100.301603782047
100.301572624869
100.301434147604
100.301280868211
100.301026520336
100.30089983587
100.301179793284
100.301413979587
100.301555969809
100.301533439199
100.301536484705
100.301535853278
100.301441324582
100.301302378339
100.301067196406
100.30078253963
100.300336573081
100.299863158872
100.299118633984
100.299072022877
100.298141617284
100.29703032752
100.295272940952
100.295605650847
100.296993511736
100.297187924442
100.298159730816
100.298238005618
100.297202575386
100.297869649657
100.298453117046
100.299019921568
100.29772172633
100.296686035165
100.295103129176
100.296421977027
100.297006254551
100.297698667888
100.298288239613
100.298819415533
100.299626155814
100.299791571187
100.299477982016
100.29869376188
100.297999492466
100.297767544406
100.298436179236
100.29789762496
100.298885962193
100.300923489036
100.301414984366
100.301443489246
100.301410347954
100.301318415022
100.301219517608
100.301051996024
100.301204260076
100.30091736992
100.300842400849
100.301046526267
100.301712162855
100.301744184985
100.301755255055
100.301715188031
100.301632005168
100.301632408016
100.301636217754
100.301533786118
100.301439760215
100.30130073458
100.301046331075
100.300795730743
100.300315943054
100.299853149245
100.299121696709
100.298116557548
100.297097243976
100.295205893787
100.295195686394
100.293071546444
100.290045140659
100.290331720145
100.291085958024
100.292213572377
100.293246678998
100.294186473343
100.292093444218
100.290128034994
100.291727856259
100.293153268952
100.29399555218
100.295237196706
100.295366041176
100.294714438544
100.293394126786
100.292784693308
100.294235570165
100.295560599869
100.296062155121
100.295825842497
100.297096897365
100.298237740582
100.300527417519
100.301202866596
100.300956632602
100.300021068996
100.300743050075
100.300577792662
100.299844591044
100.300523729757
100.300512094956
100.300835498102
100.301042419454
100.301710946683
100.301744905869
100.301756363313
100.301714910483
100.301629381371
100.301679552965
100.301576210304
100.301563922466
100.301432314292
100.301291134991
100.301018211686
100.300773554369
100.300316088775
100.299764168477
100.299057902234
100.298072774862
100.296977246507
100.295223921731
100.293114735429
100.290237984566
100.290040179415
100.28634661048
100.281705641311
100.260300485729
100.259879280216
100.263543911008
100.280666735479
100.282660068584
100.281632111633
100.286331733777
100.286776462153
100.287688816351
100.281828774161
100.285639833653
100.288062540262
100.284511946776
100.280156295542
100.272388724647
100.279533302353
100.284599448506
100.284561433719
100.287262264953
100.289252746754
100.28730538026
100.290071839357
100.291394137304
100.292738368225
100.293908449743
100.293931712376
100.292427978445
100.291253322623
100.290821665193
100.292279035004
100.293540932197
100.294126762317
100.294834293876
100.293311980517
100.294314063255
100.293755122304
100.29370273667
100.293615874394
100.293744495512
100.293454275468
100.291744644793
100.293027368773
100.291484158503
100.295099889349
100.292824208135
100.292934147239
100.293172023737
100.293156937377
100.29283566521
100.293461734412
100.293352388747
100.292797803066
100.291754178686
100.291090363042
100.292872633887
100.291566890672
100.292098472167
100.293116404891
100.293254354955
100.292370358515
100.291379973845
100.291216272125
100.298561903864
100.29771364244
100.297389187619
100.297544206897
100.299083510018
100.300617465788
100.299186296564
100.298956951655
100.299294921708
100.296110613743
100.29751566736
100.296089327743
100.293878003484
100.293625658057
100.295229441156
100.296689445774
100.295748689401
100.295709218174
100.294501514433
100.293754731808
100.294342211977
100.294171228372
100.297723473356
100.299502835448
100.30108255725
100.301598690186
100.301747337429
100.301687526938
100.301456446043
100.301354873538
100.301161215967
100.301007874086
100.300492016006
100.299570528082
100.298969901159
100.298953347544
100.299576123059
100.301136004857
100.301739897809
100.301757879322
100.30176974031
100.30170580373
100.301691111717
100.30173493873
100.301598290918
100.301561166492
100.301427639733
100.301283508924
100.301026976153
100.300759028926
100.30034888412
100.299761409574
100.299070251384
100.298175964279
100.29707553248
100.295474910285
100.293439302874
100.290924804864
100.287566041417
100.281665685342
100.28059597318
100.264120968812
100.245598035097
100.168924317019
100.183597099381
100.201498786008
100.205651670506
100.202261330208
100.19712735919
100.207139406601
100.203693313036
100.198070755723
100.209261712106
100.205779628494
100.198738467647
100.20855326943
100.20527780068
100.198039657606
100.207392145284
100.204140740686
100.196980649911
100.206034164094
100.202813773612
100.195904888426
100.203986233449
100.201843486224
100.202346891448
100.201741134034
100.200507551415
100.200535990491
100.200763207068
100.200268891936
100.200269879163
100.200624143353
100.200137035242
100.199822130177
100.200357381771
100.200286521987
100.200000112368
100.20006232543
100.200262318625
100.200475594319
100.200924661799
100.200588490984
100.200272889323
100.200013599627
100.200556674202
100.200410677426
100.200092274095
100.199443520058
100.199382756355
100.199977506479
100.200349714277
100.200527793986
100.199993512116
100.200262283718
100.200585034122
100.200924230798
100.200466745495
100.200255296671
100.200063104317
100.200013993773
100.200290257548
100.200361794216
100.199817121771
100.200130815972
100.20061811493
100.200270240176
100.200280724081
100.200708838272
100.200496069544
100.200488040321
100.201729044071
100.202327952935
100.201825131745
100.203964829929
100.203165207269
100.204262665057
100.202594673457
100.201834827315
100.203461815481
100.203155193097
100.201713599461
100.20130488599
100.201569286353
100.199195920133
100.199990941287
100.200391399139
100.200475464965
100.200546688986
100.200285696255
100.199862229453
100.200342727004
100.199612580264
100.199602073785
100.200645179863
100.19967713492
100.201355916726
100.200877198188
100.200802048541
100.200511150957
100.200585937709
100.200443007418
100.20042298827
100.200471163882
100.200938428425
100.200272268413
100.200167540649
100.200134602189
100.200300965141
100.200837954356
100.200369155975
100.200393886749
100.200452464638
100.200567194921
100.200158999869
100.200323549882
100.200782205538
100.201516704066
100.200068732795
100.200103555709
100.199934836256
100.199950605097
100.200137666206
100.200076148114
100.201517688732
100.200790301583
100.200331443952
100.200161639758
100.200566722184
100.200734169626
100.200916393138
100.200917504937
100.200728755125
100.200598421942
100.200655120056
100.200653913948
100.200601577531
100.200716468866
100.200371137955
100.200395225746
100.200454709656
100.200966797802
100.200118870317
100.200353036451
100.20184920209
100.201313202894
100.201540761202
100.201162082812
100.202289361326
100.201619239859
100.200861374938
100.201232433265
100.201504697191
100.201516970478
100.201212793758
100.200844591519
100.201616065573
100.202297739567
100.201155264399
100.201533258875
100.201315549612
100.201849319038
100.200887681137
100.202588209108
100.201921554141
100.201828799081
100.200780002247
100.20069508465
100.200023503873
100.201151238161
100.199754448016
100.200854562127
100.20145359772
100.200417957519
100.201674656539
100.201230780001
100.203123937578
100.204076341806
100.20106799997
100.195878660616
100.20277282751
100.20601652846
100.196941266001
100.204096099842
100.207372229448
100.197982545614
100.205220841358
100.208525659271
100.198633270828
100.205698396091
100.209258739338
100.197982234257
100.203587296204
100.206883429797
100.197065095249
100.202475392099
100.202828907916
100.200527708009
100.197939990035
100.197898662141
100.202641273528
100.200333443033
100.197607054395
100.194741986856
100.199311522122
100.199425584223
100.194969736178
100.187701909689
100.18727635006
100.166844984813
100.238740797459
100.238093540634
100.167615399367
100.169522456939
100.183832728054
100.201545771467
100.205502404637
100.194537063131
100.189725227888
100.194876671275
100.193765223122
100.199237785547
100.206103967102
100.202289235641
100.202724403415
100.206262167272
100.20310600031
100.202655926257
100.204995789957
100.202263669156
100.201805615191
100.203361348824
100.201142355174
100.200911961533
100.201775119036
100.19997064125
100.203817158368
100.20286132792
100.201136049795
100.201697343255
100.203044837192
100.201686522996
100.201249046336
100.20033002775
100.202569314457
100.202616106197
100.200252872972
100.204209853834
100.204566148614
100.201789321248
100.205046835382
100.205953686687
100.202966353114
100.205817940434
100.206357439324
100.203348088605
100.202422846909
100.190042601517
100.17905436972
100.179495129267
100.18944487408
100.186314115739
100.184592489732
100.189627141855
100.176414909624
100.183629900604
100.175898570492
100.176652002458
100.180512896493
100.228992709105
100.255208239498
100.231508345852
100.16044441656
100.159420985456
100.185322761278
100.152251808683
100.138046307756
100.207613341542
100.248660541735
100.270838019922
100.27953124973
100.285135530005
100.287332463156
100.287168646134
100.282760888267
100.275503659469
100.262292727557
100.269538752855
100.277354381475
100.284459178626
100.288112562407
100.291224127731
100.293734932941
100.294169679288
100.296558613319
100.297797976898
100.296667563067
100.296230071422
100.296217861494
100.296636355875
100.29954856096
100.30000757901
100.30119966721
100.301777079275
100.301736890657
100.301821987631
100.301670549201
100.301682458269
100.301740598229
100.301610261027
100.301563137094
100.301444648375
100.301289063246
100.301054343223
100.30077692015
100.300405177563
100.299892447656
100.299277998936
100.298429986654
100.297464769987
100.296019057059
100.294238641472
100.292115126562
100.289368369911
100.285579048185
100.28125716257
100.274922912623
100.255068549017
100.228429580538
100.18057370578
100.177117077321
100.175945792722
100.183791023213
100.194694822133
100.189372174065
100.193943799976
100.193636510628
100.199286929138
100.206109128138
100.202180137338
100.202656825735
100.206310283865
100.203120251331
100.202659032148
100.205032026177
100.202269265466
100.201824049513
100.20340278572
100.201144003495
100.200929264381
100.201786107643
100.199970036857
100.201831192637
100.20408276467
100.203143053794
100.201719715697
100.201300846463
100.201600023643
100.201835145048
100.203448724641
100.203158732681
100.20428494343
100.20260857001
100.202246420807
100.202935349081
100.201351581293
100.200879346351
100.202165475156
100.203826856364
100.202866855603
100.201141759265
100.201681544705
100.200419194377
100.201462453483
100.200858268651
100.199761553656
100.201162987621
100.200030254833
100.200697036938
100.200781748459
100.20184540211
100.201948057516
100.202613757716
100.200901162047
100.200207571184
100.200850052468
100.200194858975
100.200781292095
100.200386910194
100.200850833402
100.201504220545
100.201096226716
100.200417784605
100.200551195741
100.203009873752
100.205070500279
100.20273287665
100.201866193985
100.201969409605
100.202413289074
100.202104722365
100.202630527051
100.202626138018
100.202071720574
100.202387026653
100.201947430921
100.202705556887
100.205083142934
100.203020915827
100.203030806404
100.203913891008
100.202947347756
100.202020839449
100.201941029875
100.202313630561
100.201353375622
100.200540881971
100.201927707185
100.201469337032
100.200112306158
100.202607108145
100.202887907843
100.202122539392
100.202157157454
100.202774041952
100.204154398148
100.203603729015
100.202766334778
100.203504817817
100.205869524991
100.205302120246
100.202667723833
100.203227023017
100.207415210052
100.207542696464
100.20120769586
100.192026382423
100.184662985866
100.177974020127
100.181986970801
100.182770833693
100.187253579318
100.189188447314
100.184633204576
100.173757178152
100.174301129773
100.174003692056
100.170497799511
100.16063426608
100.161676296531
100.178762081987
100.174993694574
100.178362555025
100.195783753855
100.199264172205
100.212051964542
100.231828646667
100.218857855427
100.22409083421
100.242509511723
100.260920936392
100.244799181411
100.265280861267
100.276392542401
100.281383508812
100.275213437888
100.274383233286
100.281889002947
100.287327469348
100.29065520747
100.293520751975
100.293982097121
100.293322889719
100.292994650854
100.298303140949
100.298577358688
100.298549183499
100.296354308745
100.297456384249
100.299069944905
100.297571391997
100.299136862384
100.299422461066
100.300538146528
100.300485075396
100.300291432305
100.300992107968
100.298607415824
100.299528644818
100.299369115727
100.298687804327
100.299275193227
100.298545785155
100.298568370532
100.298452494988
100.298484367772
100.29858164525
100.298937704741
100.298924022261
100.299159441885
100.299408310058
100.299347883542
100.298795684577
100.298233640322
100.298087375247
100.298443742971
100.298604170181
100.298699123974
100.298605515193
100.298653509316
100.298710085049
100.29862701634
100.298632463958
100.298465837056
100.298366453332
100.297652500621
100.297944957756
100.298155610585
100.298499623586
100.298848756854
100.298897775851
100.298651991903
100.298427393428
100.298684824684
100.298983072665
100.298951804239
100.298644970168
100.29899885156
100.298708003596
100.298585256519
100.299352973971
100.300008324949
100.299527717186
100.299547959618
100.29912207203
100.298650639446
100.298397276539
100.299098408036
100.299709532885
100.299662470334
100.299102893744
100.299421657595
100.299860382442
100.299822195307
100.299697384769
100.299158808274
100.299228467985
100.299810406278
100.299871741877
100.300033724618