/*--------------------------------*- C++ -*----------------------------------*\
| =========                 |                                                 |
| \\      /  F ield         | OpenFOAM: The Open Source CFD Toolbox           |
|  \\    /   O peration     | Version:  v1612+                                |
|   \\  /    A nd           | Web:      www.OpenFOAM.com                      |
|    \\/     M anipulation  |                                                 |
\*---------------------------------------------------------------------------*/
FoamFile
{
    version     2.0;
    format      ascii;
    class       volScalarField;
    location    "0.7";
    object      p;
}
// * * * * * * * * * * * * * * * * * * * * * * * * * * * * * * * * * * * * * //

dimensions      [0 2 -2 0 0 0 0];

internalField   nonuniform List<scalar> 
74874
(
100.128851198155
100.131235381667
100.131708752645
100.130298541501
100.13581373852
100.136400128728
100.133242266887
100.13485059801
100.137367621485
100.137441273116
100.135328805241
100.13379270612
100.137076388261
100.136526371484
100.137537747085
100.137721153223
100.137102524799
100.133963814398
100.131054808684
100.130485228476
100.131959643946
100.133276791818
100.131758250658
100.131408598956
100.136849836921
100.136985755428
100.132385066912
100.132650690252
100.133813436823
100.131992121031
100.132129628312
100.133627803718
100.13263259427
100.132332427472
100.136918642503
100.136420825047
100.131318760515
100.131734942824
100.133176962416
100.131597677988
100.130166621051
100.130692075115
100.133598597353
100.136744965908
100.137192501891
100.136950373842
100.130807320835
100.130066960863
100.129672908807
100.129106786433
100.128094027518
100.128099337946
100.127384397591
100.127732058997
100.12799903403
100.128555821169
100.129756572013
100.129245050572
100.127637439212
100.12735011932
100.127083060395
100.126629959365
100.126674314676
100.127212199611
100.127373193077
100.127708876669
100.129261863949
100.129795588978
100.128671381284
100.128154516018
100.128022483893
100.127684886193
100.128346601932
100.128356558523
100.129344855842
100.129961607478
100.130438785144
100.131217185999
100.130761356336
100.132331681538
100.131940158161
100.133082732672
100.133342103604
100.13312697066
100.13255982915
100.132078596872
100.131581801537
100.128425672426
100.126750648638
100.128781578032
100.127742963905
100.12405099034
100.124999937625
100.127611895283
100.127309487921
100.125566036242
100.123807685195
100.125390012607
100.126952720188
100.126303251151
100.125627218671
100.125211189016
100.123391087459
100.12232631388
100.123523014572
100.123467448315
100.12220589619
100.123344153066
100.125324003224
100.125806856436
100.126153320681
100.127161548311
100.125934507899
100.124287834243
100.125930657771
100.127569656736
100.12784644829
100.125175974957
100.124268464069
100.128152085697
100.129205922407
100.127266527005
100.129245684655
100.132807543645
100.133031070452
100.130619809589
100.130383711925
100.123964571682
100.132115031663
100.131708377038
100.126277878965
100.123803737389
100.128441630331
100.128814232157
100.123143392734
100.123377261297
100.126276628842
100.124683296287
100.12351073682
100.121515159108
100.124401936155
100.126977758698
100.12321715419
100.122660280097
100.124899140584
100.121274162193
100.11892634932
100.121110818415
100.121075988128
100.118864495048
100.121246558558
100.125010358654
100.123032620068
100.123880844162
100.127942777808
100.125385444783
100.122093475928
100.123926752296
100.124987451309
100.126562123877
100.12358695082
100.123306066252
100.1293894765
100.128912224771
100.124504432813
100.127534698817
100.134325971329
100.135204237606
100.124900003723
100.152035539303
100.149993541488
100.122574152707
100.122437298015
100.127764766695
100.117305815778
100.11883934361
100.1298918412
100.12626517173
100.123412764799
100.123342915186
100.128248906472
100.117822506685
100.118967614087
100.119225559456
100.118977790806
100.125801426912
100.122065713308
100.12203002552
100.125663865301
100.119106361361
100.119374698041
100.119143415386
100.117735246759
100.116186041911
100.119127234888
100.116883989567
100.108245333659
100.110848232563
100.082622253001
100.078734097297
100.079097575429
100.084867232808
100.116093682717
100.110411150142
100.093367521948
100.086377740755
100.080057026056
100.080811355848
100.085787752509
100.082770317939
100.083736062578
100.087033057182
100.087020413824
100.083687520332
100.082753766732
100.085423655093
100.084604202598
100.078399415975
100.077128880056
100.081657622629
100.079700185165
100.079531302711
100.078531061743
100.078556497498
100.084781635475
100.083986984432
100.084302463267
100.084688045079
100.079953931614
100.080526930502
100.081874857657
100.081850340128
100.080508686647
100.079743772724
100.080734866485
100.079960450556
100.078479268268
100.078512034547
100.085307507748
100.084369855879
100.084031986906
100.084799829349
100.086078211752
100.086021565527
100.085402716189
100.085581474937
100.085835290191
100.085868047814
100.084961040653
100.084678891971
100.084670004429
100.084851671012
100.084492102596
100.084262469686
100.083920152575
100.084844198457
100.085954416597
100.086264302136
100.085519984289
100.0854151068
100.083689639428
100.083978003815
100.083958871892
100.083753290946
100.083907105932
100.083906495677
100.083935712612
100.083799225329
100.085516744584
100.085490286257
100.085733375811
100.08565500836
100.085489871125
100.085329128764
100.083624358306
100.083809839392
100.083950751104
100.083665936478
100.081343792626
100.081395523173
100.081508341161
100.081536473375
100.08145127801
100.081568364711
100.081518672237
100.081568357979
100.081519946477
100.081505576435
100.083779073366
100.083851947486
100.083781898432
100.083785455224
100.081460664602
100.081309917699
100.081390915272
100.081405795396
100.079405718807
100.079394170912
100.079446357694
100.079505582591
100.079564819677
100.079489883995
100.079576797711
100.079545322518
100.079593940699
100.079558878533
100.079546996287
100.07956806971
100.081529798647
100.0814345888
100.079479513838
100.079496772944
100.07938540241
100.07945701757
100.077721737595
100.077680563478
100.077628984539
100.077660783358
100.077704073326
100.077782439705
100.077725938492
100.077806738761
100.077785511643
100.077833690704
100.077814828538
100.077810211644
100.077819921038
100.077734873976
100.077749585822
100.077670717485
100.075867817226
100.075870235556
100.075828018941
100.075727328695
100.075745231466
100.075790937012
100.075894717552
100.075865230565
100.075957185789
100.075937076801
100.076006778263
100.076019800737
100.07602570111
100.076021661749
100.07592275756
100.075934530949
100.073854634138
100.073778091991
100.073746570841
100.073695013364
100.073448876995
100.073460877783
100.07360888925
100.073719948054
100.073699452357
100.073818870687
100.073820289938
100.073925366716
100.073978721589
100.07403305313
100.074017607122
100.073900273156
100.071331551849
100.07124936789
100.071135277582
100.071110009895
100.07104954583
100.070454043169
100.070419974889
100.070847982992
100.070951056859
100.070965541348
100.071118945548
100.071188678552
100.071381293227
100.071444880204
100.071523876954
100.071464023482
100.06764378867
100.067425638564
100.067442296537
100.067237694549
100.067043952888
100.06724501478
100.066010290812
100.065867110561
100.066797254179
100.066678914689
100.066840928567
100.067109022559
100.067152990413
100.067517920408
100.067698775479
100.06775631311
100.061697076296
100.061545584618
100.061031342569
100.061302239619
100.061173670193
100.06029168344
100.061176941628
100.058654635976
100.05853016421
100.060491339172
100.059596048735
100.060313757536
100.060585864611
100.060585353653
100.061127846685
100.061517538197
100.039214588929
100.039427291806
100.036161019991
100.035836617404
100.03947951677
100.040064723192
100.035306080645
100.035777405049
100.035694540904
100.035601894812
100.035151661313
100.034052676587
100.038894842249
100.03856166439
100.03531226848
100.03575213581
100.041578925228
100.044379387248
100.044458408928
100.042315327365
100.04209459762
100.043734860573
100.045958939344
100.03974893846
100.026578327915
100.068957170708
100.104600455446
100.104276699339
100.06781478774
100.035015126907
100.035231564312
100.173852180373
100.298369749297
100.223826831018
100.221859601765
100.175049283703
100.159686009189
100.145072511573
100.038740599938
100.045280009433
100.043471987218
100.041493599921
100.15086576473
100.151522780292
100.190312281283
100.129256645576
100.129993630924
100.191679143031
100.152787983085
100.151599358192
100.187972950022
100.124926182891
100.122701680807
100.178823560657
100.145411127874
100.162614283971
100.177638026716
100.297652769565
100.367713965872
100.34604808354
100.342768653353
100.361539499978
100.339853417822
100.293410845179
100.458844571322
100.485088445371
100.492160088312
100.526056346022
100.596213795766
100.600421697046
100.521191972045
100.454212020824
100.387788214583
100.349870645125
100.373861077417
100.372366315278
100.369284371872
100.369376490513
100.370289572782
100.371268978318
100.372535410127
100.374348750212
100.376702139375
100.379442175978
100.382306281726
100.384842170312
100.386452577146
100.385233090564
100.383542327765
100.381535087191
100.379331417226
100.377107762338
100.374889520867
100.372681688151
100.370601065145
100.368797718579
100.367363631082
100.366303831801
100.365526838366
100.364908555147
100.364361939779
100.363856051145
100.363418593257
100.363123655898
100.363102362544
100.363537720178
100.36458361053
100.36627729041
100.368176047448
100.369948637372
100.371596953771
100.37271891461
100.372622020093
100.372569690928
100.371951820989
100.371395777316
100.369614773575
100.367708331525
100.365818431387
100.364242170766
100.363379708158
100.363115206642
100.363255285902
100.363598286437
100.364026668227
100.364481082792
100.36495526609
100.365498396207
100.366197809238
100.367172203408
100.36850600527
100.370193851599
100.372151977127
100.374242465652
100.376325382626
100.378359492303
100.380318166583
100.382071598323
100.383564059345
100.384649317752
100.385182871373
100.387054530236
100.388323290255
100.387680128015
100.386377359363
100.384555364159
100.382375382651
100.379994006123
100.377607994858
100.375270389437
100.372991358579
100.370848871373
100.368981671786
100.367475363251
100.366339680383
100.365490779583
100.364805923199
100.364203838208
100.363672227984
100.363260114303
100.363061872992
100.363184941174
100.363782254526
100.364972192159
100.366746040157
100.368630948788
100.370337760748
100.371885288373
100.372936430992
100.372829618218
100.373196454461
100.373441221033
100.373442489784
100.373666015926
100.373555350341
100.373791422555
100.373677787239
100.373901462987
100.373825433719
100.373872386812
100.373702419316
100.373611530352
100.373554943244
100.373462971003
100.373499276186
100.373428808267
100.373612324739
100.37380193374
100.373744877481
100.373812500849
100.373595026001
100.373701088899
100.373464332382
100.373577271693
100.37335523127
100.373347990724
100.373101583603
100.372956446015
100.373223995632
100.373247066068
100.373462834529
100.37336939882
100.373588231926
100.373522625552
100.373718745599
100.373652851084
100.37366552409
100.373515333968
100.373485026738
100.373441452862
100.373454707593
100.373372279698
100.373479346746
100.373576823404
100.373589568478
100.373401299311
100.373476731513
100.373273288304
100.373354779035
100.373146179525
100.373113647547
100.37283383517
100.372643752702
100.372934119387
100.372999044676
100.373197740425
100.373172748212
100.373310489453
100.373420821091
100.373336762187
100.373519570574
100.373598312866
100.373653029708
100.373749279347
100.373839906978
100.373939996742
100.373778173451
100.374003030476
100.373930340386
100.373987242068
100.373819437281
100.373729197489
100.373503710665
100.373178610767
100.372849250688
100.372700613518
100.372585020842
100.372461369068
100.372378525338
100.372475010931
100.372631888197
100.372796885434
100.372902245413
100.373009725285
100.37338973253
100.373290939681
100.373202018184
100.37316778979
100.373295288548
100.373286026656
100.372923620871
100.372615493943
100.372579985717
100.372489424974
100.37260774926
100.372652091179
100.372884608378
100.373216813452
100.373288926238
100.373303741132
100.37341315446
100.373490015599
100.373583668736
100.373648907668
100.373709120078
100.373776936681
100.373865862428
100.373957264836
100.374000231814
100.374046863839
100.373854666384
100.373793929639
100.373519794193
100.373298291223
100.373011013579
100.372563263749
100.372122061976
100.371798935483
100.371634054299
100.37140241906
100.371412206784
100.371663810998
100.37199070535
100.372427726939
100.372219382635
100.371955492345
100.371608013572
100.371429882334
100.371274290963
100.371111215588
100.371015174692
100.371205629705
100.371466117395
100.371697573501
100.371788971111
100.371816949906
100.37151398011
100.371729442514
100.372203662447
100.372153395875
100.372574561829
100.372835566108
100.373143672945
100.373304444266
100.373336524643
100.37344444304
100.373536094752
100.373636075382
100.373544921501
100.373767178209
100.373654031934
100.373895811618
100.373980928023
100.373866805387
100.374076863572
100.37416440396
100.374107365442
100.374153737607
100.37402932602
100.373797523515
100.37377380005
100.373797909664
100.373890827501
100.373910637691
100.374080259102
100.374043253533
100.374114555484
100.37395261353
100.374031039095
100.374231422055
100.374170973461
100.374211885692
100.374128404528
100.373949176507
100.373868887736
100.373448421451
100.373277919152
100.373167810298
100.372787771066
100.372336337002
100.372015595489
100.371459223437
100.371303021751
100.37101757369
100.370758076663
100.370522194035
100.370302846664
100.369993039653
100.369702753243
100.369596077529
100.369907652655
100.370295373869
100.37055063452
100.370739398885
100.370981678968
100.371202038842
100.370975361464
100.371093412856
100.370867857881
100.371186138525
100.371899210478
100.373045842388
100.373351155517
100.373412461081
100.373640831794
100.373640867237
100.373853569682
100.373745541095
100.373841586302
100.374065229891
100.374139815946
100.374220147067
100.374115239898
100.37430835683
100.374251378704
100.374288414826
100.37420439893
100.374026881533
100.373949255005
100.373585111894
100.373406704609
100.373082887893
100.372700288835
100.372425782446
100.37221680317
100.371692284222
100.371561516215
100.37138416356
100.371240210015
100.371259239283
100.370965980859
100.370683085766
100.370476179221
100.370113451353
100.370291477622
100.37064957686
100.370948271906
100.371107994956
100.370807205216
100.37049967662
100.370083334863
100.370182692195
100.369702109249
100.369275187896
100.368935428894
100.368671228075
100.368438790247
100.368718469592
100.369048936932
100.369403620619
100.369771803109
100.369547334089
100.369658484583
100.369703514161
100.369895930896
100.369961564678
100.370681033871
100.37156525475
100.372794695974
100.373124348373
100.373258757779
100.373320003109
100.373550419069
100.373557892063
100.373645465198
100.373756034145
100.373747022745
100.373738620227
100.373950223921
100.374029403104
100.373927767552
100.37400998381
100.374086473966
100.374284146691
100.37418619538
100.374370031238
100.374308993692
100.374348567184
100.374260113588
100.37413199785
100.374011367675
100.373724784103
100.373528169359
100.37319184655
100.372807773327
100.372570150982
100.372083453204
100.371998939297
100.371812304861
100.371648765423
100.371512452361
100.371544251577
100.371381839089
100.371598071609
100.371319344778
100.371028388076
100.370730005197
100.370399654808
100.370030730111
100.369620745669
100.369215972703
100.368687002473
100.368960788234
100.369480212135
100.369960127084
100.370211595173
100.370486914502
100.370793264345
100.371092524837
100.371115932097
100.371028780346
100.37070507328
100.369929996305
100.369754570667
100.369598942121
100.368848859037
100.368279124261
100.366807700515
100.367344246387
100.368235753892
100.369082815164
100.369883499226
100.370251836888
100.370041457176
100.36939515858
100.368508026515
100.36765575163
100.36662153423
100.365706960415
100.365115585416
100.363106024664
100.361756304345
100.363655651377
100.364668697339
100.365522459047
100.366455404104
100.366391736947
100.364958762884
100.364111535929
100.362764576323
100.361385799801
100.360465622774
100.360175211501
100.361323596855
100.363100194595
100.364373832685
100.365182651752
100.366279984847
100.367008592843
100.367890648007
100.369003955971
100.369779963664
100.37053519139
100.371146796717
100.370512411066
100.370866516942
100.370670714096
100.371391986504
100.370911726657
100.370426604417
100.369944459956
100.369468225927
100.368791928647
100.367910317536
100.366600471003
100.366023764506
100.364593358922
100.364652091274
100.364472538529
100.362643326249
100.362015506967
100.360637584307
100.355496304358
100.356994110077
100.356922839669
100.359109635131
100.360174498202
100.364033275324
100.365185582541
100.368161491298
100.368890570369
100.370902895564
100.370147748808
100.369045250849
100.368971363619
100.368964716838
100.36905326701
100.369483481923
100.368733210919
100.366948657031
100.366490270165
100.366355986398
100.366430516225
100.368785428643
100.37076824311
100.37075801616
100.371470112214
100.371956542946
100.371944702666
100.372332955778
100.372080826932
100.372258489791
100.372330116482
100.372424264167
100.372382916333
100.372325714617
100.372194618134
100.371707610354
100.371467230544
100.371628919628
100.371697808548
100.371578022444
100.37178346513
100.37178468812
100.371935515711
100.37221842955
100.372231601841
100.372398331457
100.372067981346
100.372296495324
100.372357463458
100.37201749531
100.372211960434
100.371909205673
100.371913935721
100.371476048388
100.371412159786
100.371829665207
100.371842979338
100.372114072932
100.371988345214
100.372228569325
100.372048675536
100.372258481393
100.372098109511
100.372075320241
100.371961779122
100.372033537946
100.372153872166
100.372039952404
100.371920520593
100.371790512972
100.371483416191
100.371053949488
100.370614064519
100.370993655584
100.371048663905
100.371409577136
100.371332346982
100.371724909035
100.371854320281
100.372015077457
100.371776371771
100.371982491047
100.37204810344
100.371892730869
100.371994124174
100.371662065835
100.37172354866
100.371524089966
100.370974807001
100.370736517935
100.369924529822
100.370130787605
100.370265214011
100.371125437502
100.371506101648
100.371531440924
100.371888532024
100.371666376062
100.372000592115
100.371931973689
100.371744794927
100.371915708288
100.371754020531
100.371561038347
100.371403685158
100.37164516323
100.371734615279
100.371858131312
100.37178691292
100.37168246031
100.371483757792
100.371155320835
100.370517499437
100.369785020589
100.370452595811
100.370605376877
100.371071960936
100.371051137639
100.371453886391
100.371643683344
100.371757983703
100.371511204857
100.371770003712
100.371772769702
100.371666663097
100.371695239143
100.371818086189
100.371456365585
100.371509088733
100.37121219703
100.370494247624
100.370610912357
100.371283501775
100.371270061486
100.371767549559
100.37154068253
100.371662902282
100.371723678537
100.371709989408
100.371749629581
100.37177885054
100.371897987294
100.370420784894
100.371314671004
100.371346488039
100.371540482076
100.372012979794
100.372131890335
100.372142375788
100.372381412414
100.372356888922
100.372468478506
100.372604396757
100.372492074808
100.372636349919
100.372508865548
100.372522556091
100.372560789172
100.372552837559
100.372624627999
100.372776004676
100.372818672418
100.372853406197
100.372581897542
100.372537262643
100.372576028782
100.372350026437
100.372018260222
100.371669228549
100.370949114801
100.370303080529
100.369619676343
100.369903739569
100.370160794541
100.370146123312
100.370063274493
100.370492519419
100.370603806208
100.370749272956
100.370737339149
100.37033012801
100.370722611548
100.370987339518
100.371291660914
100.371699008242
100.371954578203
100.372091825671
100.372143444435
100.37219746077
100.372214272837
100.372288365051
100.372500982998
100.37245679133
100.372683718383
100.372608358718
100.37284621827
100.373050842207
100.3729986934
100.37303883796
100.372781915928
100.372661213014
100.372391797629
100.371922379015
100.37135959989
100.371282086438
100.371490515006
100.371676594033
100.372260083518
100.37175672472
100.371869584494
100.372190353763
100.372299443521
100.372487627302
100.372478931608
100.372622080449
100.372554074922
100.372859037046
100.372772962933
100.372825017771
100.373169362774
100.373132376983
100.37316191224
100.373030835468
100.372811773273
100.373003520101
100.373027660192
100.373076834236
100.373197114386
100.37327435384
100.373169971566
100.373009758362
100.373020590627
100.372780309084
100.372757153997
100.372574413911
100.372209745157
100.372199378081
100.371660629508
100.371228867755
100.37116502945
100.370921293204
100.370827081368
100.370800086876
100.37074523792
100.371556761991
100.372068166922
100.372136277265
100.372345153663
100.372372217805
100.372643351704
100.372830013563
100.372613770812
100.373041065944
100.373026774546
100.373150057791
100.373243737599
100.373364222204
100.373453108566
100.373558556791
100.373646715941
100.373757430615
100.373843389133
100.373940178635
100.374019532449
100.374105612411
100.374174519428
100.374248537071
100.374160512629
100.374345553207
100.374249664425
100.374425544613
100.374373420463
100.374423045109
100.37431398194
100.374260443796
100.374166989052
100.374116217082
100.373913513026
100.373678945383
100.37333548993
100.372971360892
100.372746525426
100.37228110193
100.372223808026
100.372063753021
100.371975102518
100.371974971749
100.371733150504
100.371590915952
100.371813095051
100.371813862402
100.371852471188
100.371947830855
100.37169763746
100.371454226479
100.371202287044
100.370915852254
100.37059283539
100.370151918098
100.370381766651
100.370787269343
100.371070400711
100.371335585167
100.37159623072
100.371579440612
100.37130499355
100.371028956719
100.370733804091
100.370346858921
100.369819207786
100.370173915799
100.36968090417
100.369165778685
100.368683472705
100.3682668456
100.367580558505
100.367957061084
100.368581319819
100.368939222849
100.369397742904
100.369374247261
100.369270093723
100.368987878144
100.368766183105
100.368522367602
100.368564335191
100.368185257587
100.36940356869
100.371469436348
100.37181981574
100.372189302878
100.372224728076
100.373178046651
100.37306281593
100.373535864528
100.373632132321
100.373834310224
100.37383082652
100.37392014254
100.374109131611
100.374179915158
100.374252244777
100.374308690032
100.374226407318
100.374397865248
100.374315341217
100.374471758982
100.374425689282
100.374465125275
100.374355650287
100.37431091879
100.374186904573
100.373965998258
100.373802968958
100.373471716599
100.373164910718
100.372924589169
100.372501637566
100.372414651352
100.372107659373
100.372209178558
100.37201634286
100.3721452157
100.372108877424
100.372224602215
100.372011109369
100.372023578643
100.37210708473
100.372206049977
100.372152529317
100.372260900013
100.372019113019
100.371788005637
100.371542210234
100.371256711877
100.370949433403
100.370596338949
100.370138162
100.369715827692
100.369320847622
100.369676850373
100.370136693398
100.370416720278
100.370785823139
100.371094948802
100.371374276816
100.371628869974
100.371885640108
100.371917335489
100.371816866664
100.371368520787
100.371744383699
100.371265343508
100.370824250564
100.371303304553
100.370903471926
100.37127442285
100.370939362791
100.371853350284
100.37058836752
100.370081532611
100.369568157718
100.369046073045
100.368509227402
100.367947672738
100.367283496659
100.366457031373
100.365632542006
100.363587000703
100.363228768261
100.362487497049
100.36219178954
100.361157148216
100.36024249145
100.359794173935
100.359647726308
100.353863528377
100.354427869746
100.353444766451
100.35390993395
100.353799002362
100.35540338891
100.356125689946
100.355229627578
100.353856135476
100.355228615492
100.354829322081
100.355203721866
100.356086980575
100.35620607323
100.355117530754
100.35533040161
100.358520773996
100.353921853048
100.353530170868
100.355559550119
100.355692622536
100.356246314418
100.357650624464
100.359257853188
100.359951120739
100.359797838859
100.357946184563
100.358768321885
100.359912226972
100.358916501911
100.357457741466
100.35749954464
100.359303476945
100.360778034267
100.362732446634
100.364321547348
100.365164712262
100.363397963577
100.364753033196
100.366279067323
100.366884326298
100.368307713703
100.367312371843
100.36849894247
100.369456789954
100.370299123043
100.370950483997
100.371514738608
100.371732095352
100.372059544814
100.37192870973
100.371167452292
100.371597895005
100.371504229535
100.372182755028
100.371100788737
100.368712064417
100.368190551196
100.367664773008
100.367173519403
100.366689816865
100.366226309222
100.365685751166
100.365008542713
100.364283977955
100.36295810683
100.362726774174
100.362636300168
100.36249913305
100.362638781299
100.361831282597
100.361840083644
100.363109066169
100.363816010227
100.365004867611
100.366778250555
100.368990556059
100.369347983209
100.367239653667
100.365376463467
100.363967942539
100.363313343649
100.363212162247
100.363430288918
100.36377979461
100.364170951931
100.364562655002
100.364963384264
100.365425447786
100.366034099614
100.366885913945
100.368061541093
100.369574896567
100.371380338348
100.373363308543
100.375345070973
100.377179304958
100.37883435893
100.38029007022
100.381533446353
100.382454387354
100.382911748055
100.38287362158
100.385154933092
100.387037572071
100.388314721186
100.388886784399
100.388890616382
100.388226317184
100.38687959536
100.384986567084
100.382720045236
100.380239812485
100.377758795069
100.375348181094
100.373021250799
100.370841150091
100.368944519308
100.367411746256
100.366241933097
100.365360633345
100.364639600222
100.364017865813
100.363502667226
100.36315911218
100.363089812908
100.363370665005
100.364109693448
100.365399275983
100.367226303777
100.369107777835
100.370758250324
100.371217349192
100.372590814751
100.373435352212
100.373323290024
100.373584982144
100.373313907303
100.373841190102
100.373938579173
100.373930469742
100.374012902428
100.374005750204
100.374086295322
100.374163725233
100.374229562431
100.374361061016
100.3742869128
100.374446074716
100.374374714872
100.37451368268
100.374478041271
100.374511997193
100.374416863109
100.374373019422
100.374257985156
100.374044038127
100.373905927356
100.37350976308
100.373347800088
100.373146690768
100.37302998661
100.372785301021
100.372651352953
100.372361867788
100.372408850763
100.372345993155
100.37232236796
100.372412461754
100.37233821241
100.37256990805
100.372408340428
100.372158822939
100.372348673162
100.37240218773
100.372442451135
100.372532393258
100.372334059727
100.372308618618
100.371978019664
100.37172631473
100.371475557972
100.371170579934
100.370846275587
100.370461270003
100.370180546275
100.37036764676
100.370768031361
100.371088476931
100.371400622938
100.371654555644
100.37191120247
100.372171858972
100.372179590677
100.372233019587
100.372113897662
100.371930217704
100.372103610363
100.371913577702
100.372145645338
100.371725840475
100.372131900768
100.37180512745
100.37160049969
100.371845556227
100.371973941528
100.371823064041
100.37247170485
100.371630439031
100.36929961014
100.367436538138
100.366236090578
100.365557183388
100.365125365856
100.364697566329
100.364325790302
100.363896668549
100.36353092286
100.363167579171
100.362894532319
100.362588384418
100.36250887978
100.3624283968
100.3621384638
100.362583463362
100.362942838458
100.363274027021
100.363131436731
100.363010942902
100.363200610813
100.363214279437
100.363021641352
100.362201333586
100.362733708582
100.362848266921
100.362630207527
100.36180363595
100.360563844829
100.360496558593
100.359431717295
100.359376766348
100.35452893862
100.354756849962
100.354553091832
100.355934530575
100.355889284144
100.357497085468
100.358334684769
100.357608449182
100.356784289366
100.357494244386
100.35789451575
100.357736874228
100.358074705095
100.358488839258
100.357775870942
100.360301959235
100.360357658509
100.358669885503
100.360258823726
100.36029679677
100.356595013504
100.356355599824
100.354899979062
100.358515278573
100.360855577442
100.364109125257
100.367236039797
100.368774104406
100.369340889916
100.370469048278
100.371113378274
100.371251219581
100.371215413672
100.371608836357
100.371468624477
100.37167763448
100.371689572329
100.371482527714
100.371607926222
100.371364453998
100.37108694135
100.371405257551
100.37155847511
100.371487227506
100.371240032444
100.370851292148
100.370256568944
100.370958084174
100.371016659635
100.371380330203
100.371325589396
100.371536481505
100.371712057344
100.371693161074
100.371436918895
100.371665578007
100.371715336469
100.371346031538
100.371523645756
100.371629749146
100.371213493644
100.371240676215
100.37078648678
100.369917737344
100.368771354084
100.368269613986
100.366208957496
100.368019060134
100.367838619011
100.369130888021
100.37010532315
100.37098001661
100.37131299141
100.371295720853
100.371631889475
100.371478069834
100.371794199488
100.371639819668
100.371639603649
100.371669827157
100.371611911261
100.371570148853
100.37145486021
100.370429954853
100.371281268627
100.371431464313
100.370564328348
100.368027164842
100.369214111643
100.369524084655
100.370781996648
100.371348083121
100.371381276593
100.370921495536
100.368444264049
100.369807853525
100.37028366834
100.371096376173
100.371444187644
100.371164983367
100.370935996382
100.370747050067
100.370335968454
100.369132380995
100.370082374078
100.371048786486
100.371123348857
100.37119218113
100.369720744025
100.370495774626
100.370685615393
100.371313105558
100.371727096899
100.371801813403
100.371816435722
100.371878862476
100.371919020119