/*--------------------------------*- C++ -*----------------------------------*\
| =========                 |                                                 |
| \\      /  F ield         | OpenFOAM: The Open Source CFD Toolbox           |
|  \\    /   O peration     | Version:  v1612+                                |
|   \\  /    A nd           | Web:      www.OpenFOAM.com                      |
|    \\/     M anipulation  |                                                 |
\*---------------------------------------------------------------------------*/
FoamFile
{
    version     2.0;
    format      ascii;
    class       volScalarField;
    location    "0.9";
    object      p;
}
// * * * * * * * * * * * * * * * * * * * * * * * * * * * * * * * * * * * * * //

dimensions      [0 2 -2 0 0 0 0];

internalField   nonuniform List<scalar> 
80683
(
100.068356760544
100.070326009646
100.067165595686
100.071491936173
100.078518353598
100.078654582177
100.076707635649
100.077258179345
100.077243178284
100.077623083558
100.078120515293
100.077889351859
100.079614389861
100.079229810128
100.081770528698
100.08177233959
100.078343797271
100.07352962174
100.072443752306
100.072395328373
100.073399351528
100.073255476021
100.072472448904
100.073912535878
100.080359666912
100.080409471726
100.074695505442
100.072889219807
100.072783803393
100.072070875623
100.07193904953
100.072924448281
100.072874762134
100.074624851613
100.080173349262
100.080003670233
100.073806163738
100.072424733939
100.073157295544
100.073110808285
100.072228607479
100.072278299981
100.0734016998
100.078140597777
100.081412013176
100.08126310367
100.074320513979
100.073806362678
100.071612528327
100.071094478935
100.071021318402
100.070650635616
100.070116123982
100.068980231403
100.070071705571
100.071222886726
100.071385407901
100.070549715384
100.069515839903
100.068364267935
100.067992613573
100.068582953391
100.068508777
100.06783298882
100.068386457722
100.069516681484
100.070493295759
100.0714751741
100.071447737239
100.070256972966
100.069158113938
100.070334375442
100.070760646828
100.071090723665
100.071093818105
100.071594929834
100.074032211302
100.07474001564
100.072133904613
100.075289582515
100.078406844539
100.080059314694
100.077901828781
100.077651093124
100.07881463365
100.076809049033
100.074329841899
100.070134413612
100.075435910116
100.063533672825
100.051506048438
100.057224064099
100.058343343743
100.070531114598
100.066430930914
100.067646139943
100.069801106168
100.067805363879
100.066391275245
100.065878102764
100.068451967333
100.06995206102
100.065888016995
100.064947772433
100.067284166277
100.064490500982
100.063371695072
100.064401777351
100.064406201869
100.063422919002
100.064505826156
100.067236059785
100.064907387908
100.065706540778
100.070190223778
100.068979086747
100.066214174808
100.066579880495
100.067908562441
100.06986506137
100.067599418784
100.06630619743
100.070854093629
100.070887556747
100.067889689414
100.071429678818
100.077665087037
100.083063413728
100.076429913684
100.076336761456
100.080617744555
100.095913478956
100.064527211294
100.065069044499
100.048946608906
100.02248893093
100.023399531128
100.018936027326
100.019339093693
100.025721159519
100.056474181724
100.06882060064
100.06492847104
100.064731263644
100.071630020162
100.057907985121
100.058658767721
100.058588973955
100.058782355133
100.068490657889
100.06364280959
100.06363177867
100.068436954565
100.058808385313
100.058631270388
100.058658166319
100.057742855439
100.056576524186
100.058628362682
100.056845316387
100.017347663265
100.020515125774
100.021511955568
100.021358309406
100.020558590092
100.020696561699
100.022149929071
100.022800467801
100.026125266523
100.023241732751
100.024251076829
100.027841601091
100.027845737467
100.024260795725
100.023200322198
100.025882780201
100.025387699322
100.018668593528
100.020385329791
100.027163023265
100.027594519447
100.026466682594
100.026336322348
100.027428907991
100.027303093771
100.026402150619
100.02678078599
100.027075368332
100.021852077986
100.022626563967
100.023828675466
100.023786176936
100.022510421469
100.021633750344
100.022556593617
100.021824436858
100.02616695219
100.027429023841
100.028143992274
100.028387771266
100.027549113654
100.027562879204
100.028465429688
100.028301481259
100.027630340401
100.027880081088
100.028081180498
100.028097603115
100.027364091145
100.026959871537
100.026898111513
100.027183738052
100.026728721088
100.026515622342
100.027656594943
100.025865446686
100.025687308288
100.025870145729
100.026020211239
100.025496156853
100.025445573593
100.025995791824
100.025962170861
100.025765003157
100.026009670522
100.026027210016
100.02605550927
100.025938010248
100.027721243399
100.02767047747
100.027965717608
100.027847793873
100.025886813463
100.023585237388
100.023586300876
100.023424128102
100.023399103311
100.023371641925
100.023336506805
100.023240246605
100.023239940604
100.023409090197
100.023390226453
100.023630738195
100.023634907645
100.023737749043
100.023716783588
100.02370527926
100.025910907671
100.026016666057
100.02372750406
100.02189281392
100.021746708225
100.021697130257
100.02152026814
100.021469928455
100.02125198323
100.021659775849
100.021637838183
100.021204893611
100.021423182281
100.021417840148
100.021654161313
100.021709685144
100.021873312121
100.021887595727
100.021890408558
100.020338476942
100.020302566601
100.020108290015
100.019988868434
100.019741945003
100.019678172564
100.019389110106
100.019183661834
100.019223515493
100.019394460583
100.019583455759
100.019613260374
100.019879575326
100.020010375007
100.020250231938
100.020322472023
100.018789674356
100.018812181847
100.018672186774
100.018361188956
100.018127478086
100.017740276025
100.017576449102
100.01738353871
100.016799550484
100.016785407482
100.017254772007
100.017442330793
100.017629830001
100.017989532422
100.018233398299
100.01861033178
100.016757002917
100.017122985917
100.017140045669
100.016791923423
100.016268625466
100.015856043471
100.015241362146
100.014892454719
100.014712967703
100.013714287183
100.013704360907
100.014559298225
100.014741293094
100.015186056904
100.015735352653
100.016174272161
100.013277644385
100.014306289715
100.014967213363
100.014952709685
100.014258281504
100.013261378166
100.012804166463
100.011813729573
100.010826296923
100.010744323483
100.008931617742
100.008972757546
100.010770973282
100.010801942307
100.011839813082
100.012745554186
100.008462005279
100.008244957875
100.010475764563
100.011799448196
100.011712754726
100.010316669557
100.008000258396
100.008221732903
100.006702720419
100.00387982021
100.004886876102
100.001531380284
100.001352399238
100.004756282218
100.004062626065
100.007003425854
99.9945096553159
99.9960829648975
99.9922056600378
99.9965385984208
100.001031310755
100.000826151904
99.9961473923329
99.9917081469371
99.9956016602984
99.9939650505173
99.9854247095193
99.9888924891843
99.9858626544412
99.9857650217087
99.988955521689
99.9861910030749
99.9957113380847
100.004734909189
100.006210665694
100.002754990506
100.012373394206
100.014711416765
100.014332477897
100.011521945307
100.001697028099
100.004960242511
100.003609206873
99.9946284268136
99.9885659662284
100.022803476247
100.046425865902
100.046745190952
100.023840375351
99.9896340002986
99.9893458505872
100.083633332016
100.167156330908
100.107432325388
100.107936249579
100.094508533423
100.080249682896
100.070968631831
100.066728811706
100.067306443508
100.073586755282
100.090235594417
100.080719211593
100.08026187061
100.088884920743
100.071747154339
100.065361721123
100.065300379093
100.069464677662
100.0789187259
100.093394454591
100.187855545341
100.208030428754
100.208488741385
100.188752928958
100.191724742344
100.184431240462
100.209075857152
100.250756445043
100.159383865157
100.166609564415
100.223681521444
100.187178844811
100.217932081209
100.245387979248
100.184888462951
100.18412256757
100.24397192597
100.216185745522
100.184828069175
100.221002702298
100.163132951793
100.156460458802
100.206715115456
100.182585291877
100.190321871379
100.286172168323
100.33378168165
100.301019967775
100.301457363175
100.335084469914
100.304893905386
100.287721126315
100.39757530575
100.427228384687
100.39809073539
100.416408018259
100.414328040344
100.369417342762
100.309102310957
100.343584905308
100.288458204695
100.396572138814
100.424393719291
100.396684860707
100.409897564556
100.436092186178
100.386347047137
100.322205384828
100.329963680933
100.257072941459
100.299033432005
100.379307326779
100.41857377275
100.441469963657
100.45530084523
100.464125948977
100.46885720176
100.470985805218
100.471957273819
100.472395741608
100.472585695282
100.472571902178
100.472378453106
100.472041204379
100.471687398935
100.471503245509
100.47164803024
100.472182103079
100.473190684241
100.474727605532
100.477055959485
100.481532186447
100.490040385651
100.507386087771
100.531668482315
100.571542033335
100.5622930206
100.497629844088
100.44123137201
100.38420197893
100.351973337662
100.374804981862
100.372978613681
100.370852395074
100.371462977102
100.372565296359
100.373585868808
100.374806738216
100.376432769511
100.378385525976
100.3804427153
100.382309798133
100.383700045244
100.384383190697
100.383822278388
100.383036907709
100.381980724296
100.380635689161
100.378966631334
100.37694203011
100.374665005442
100.37240657161
100.370394256006
100.368760239892
100.367504654274
100.36658849468
100.365931821141
100.365525208357
100.365389363611
100.365532210617
100.365978771151
100.366768360568
100.367934492365
100.369426010347
100.371013196349
100.372154777387
100.372416686253
100.372215280108
100.37238387515
100.372387847782
100.372431933031
100.372452369136
100.372480592737
100.372547383496
100.37257925048
100.372815317951
100.372962570746
100.373098570093
100.373074572462
100.373028199629
100.372909997755
100.372800870881
100.372655313075
100.372656060762
100.372590831064
100.37282257868
100.372953698484
100.372989868163
100.372839693025
100.372698723835
100.372484718404
100.372437055783
100.37238726897
100.372367166744
100.372360817737
100.372317252905
100.372322246845
100.372234392904
100.372298526362
100.372086721668
100.372257806615
100.372240735815
100.372279849766
100.372291583205
100.372318881509
100.372341585343
100.372370504319
100.372562419305
100.372702932332
100.372852997337
100.372679899519
100.37254663993
100.372418517045
100.372265618724
100.372269270231
100.37224896329
100.372207102031
100.372194699459
100.372167177234
100.372173023458
100.372043097822
100.372108185878
100.37193625582
100.372098739692
100.372091988205
100.372118343824
100.372127697125
100.372173875782
100.372198978398
100.372204781897
100.372314288513
100.372420109311
100.372507011477
100.372515090522
100.372406091089
100.372249357616
100.372094092778
100.372084707439
100.372027932474
100.372243655295
100.372376185663
100.372293542836
100.372218089106
100.372126271406
100.372104202001
100.372089750637
100.372054838757
100.372040626186
100.37201697668
100.372004549589
100.371867320747
100.371884684737
100.371775081675
100.371929424989
100.371941982197
100.371954212833
100.371986338114
100.372027826512
100.372033268067
100.372034932272
100.37212373614
100.372182108434
100.372047524995
100.372013920019
100.371954139232
100.371973306481
100.37195689324
100.371908569582
100.371874542425
100.371871321683
100.371831557241
100.371696404582
100.371674295128
100.371617662457
100.371760689361
100.371797767702
100.371806076495
100.371845239971
100.371876701574
100.37188958699
100.371864369634
100.371958714429
100.371937152301
100.371972843226
100.371878970261
100.371878991323
100.371796408426
100.371840924088
100.371821880466
100.371856412849
100.37179438469
100.371832369265
100.371780937207
100.371730028895
100.371720008273
100.371673039569
100.3715492496
100.37146636761
100.371484784265
100.371602224001
100.371624658273
100.371646237509
100.371677808015
100.371722421668
100.371732207253
100.371810969666
100.371724619947
100.371819965412
100.371627914875
100.371552297078
100.371417302583
100.371508595912
100.371436713016
100.371692440989
100.371697014727
100.371750936568
100.371649343115
100.371678409026
100.371723358901
100.371655933963
100.371549773877
100.371595891212
100.371542552318
100.37151688909
100.371385364078
100.371356062446
100.371101042212
100.370512166702
100.371121471429
100.371360624595
100.371361412029
100.371457387131
100.37149018692
100.371528143643
100.37161625318
100.371636313214
100.371629125224
100.371703190547
100.371652026934
100.371564276018
100.37150247454
100.371426800913
100.371589677962
100.371444774552
100.371589001075
100.371645644082
100.371518588284
100.371567327586
100.371551968836
100.371484293457
100.371436586034
100.371407314376
100.371311946852
100.371294682905
100.371071701112
100.370380027394
100.371107029552
100.371294185983
100.371309351348
100.371371394946
100.371400471619
100.371442188505
100.371492523027
100.371532825608
100.371487720294
100.371561648298
100.371435940029
100.371494696316
100.371579369054
100.371605309745
100.371557297941
100.371501699282
100.371478408726
100.371109178539
100.370992760766
100.371192218551
100.371205308136
100.371411590832
100.371217812884
100.37148279029
100.37151341546
100.371423726232
100.371448109974
100.37140516073
100.371367611623
100.371357893557
100.371308830977
100.371298333466
100.371263308039
100.371098374329
100.370446465697
100.371189851732
100.371262212023
100.371296076068
100.371335862557
100.371307448394
100.371411662077
100.371423540464
100.371470891071
100.371448704335
100.371464022945
100.371524787319
100.371593082261
100.371679405606
100.371728829189
100.371622952395
100.37164527452
100.371705992263
100.371772565398
100.371839537271
100.371912713361
100.371982044491
100.372058796218
100.372129218169
100.372205012427
100.372265893609
100.37234731164
100.372467618325
100.372510750044
100.372544103625
100.372557990723
100.372633244827
100.372684158094
100.372938163771
100.373083128977
100.373211174976
100.373221466315
100.373156828047
100.373057296044
100.372816034163
100.372618108113
100.372476402024
100.372346520215
100.372237005257
100.372265096434
100.372342029784
100.372545780385
100.372673892954
100.372929480079
100.372805831556
100.372641985333
100.372408850202
100.372277204419
100.372211057841
100.372052589328
100.371918638726
100.3717649904
100.371647461581
100.371688936661
100.371709129043
100.37190653571
100.372111436786
100.372232761797
100.372341639585
100.372446138154
100.372377151568
100.372241884141
100.372060074416
100.371925832204
100.37193795886
100.371860262556
100.371706998679
100.371626623777
100.371406835155
100.371123646626
100.370852719443
100.370743836167
100.370548635702
100.370706354851
100.370780829568
100.371037123389
100.371380458841
100.371181174248
100.371025301571
100.370841741399
100.370648095736
100.370926788783
100.370897610485
100.371270320732
100.371285423454
100.371210845212
100.371417280104
100.371463238174
100.371652707055
100.371547396198
100.371600390193
100.371653579573
100.371690614737
100.371835740781
100.371894345687
100.37197268484
100.372028749055
100.372100556905
100.372157972867
100.372221708913
100.372266685564
100.372303812867
100.372333263858
100.372375735165
100.372422204899
100.372415757251
100.372545897157
100.372598833173
100.372636785262
100.37262994384
100.37273774814
100.372810414474
100.373070300143
100.373186635736
100.373328926243
100.37330153745
100.373295738622
100.373327609036
100.373178136961
100.372989226593
100.372866609834
100.372773469071
100.37248702726
100.372136777891
100.37196160412
100.37183158492
100.37162953107
100.3714687115
100.37132766132
100.371200374894
100.37105092855
100.370943441831
100.370811039622
100.370912268733
100.371056759627
100.371267110333
100.37141481897
100.371557535435
100.371660095742
100.371803697243
100.371933893768
100.372072332013
100.372199801861
100.372062221995
100.372247093041
100.372484671315
100.372449929242
100.372617926249
100.372530252943
100.3723803031
100.372196929252
100.372267861634
100.372369534049
100.372485895463
100.372502723468
100.37263418009
100.372679646138
100.372720646252
100.372723282392
100.372854078483
100.372919432053
100.373167434301
100.37327222594
100.37338837616
100.373380858367
100.373413045725
100.37327080398
100.373119296719
100.372874793282
100.372591833519
100.372298777971
100.37177756621
100.371542921728
100.371367786367
100.371193120248
100.3710005504
100.37083034942
100.370641294508
100.370485419791
100.370357510255
100.37055902919
100.370778737841
100.371010541662
100.371325726179
100.371392825994
100.371600125506
100.371438358277
100.371648430495
100.371824218781
100.371675380057
100.371901803566
100.372288483246
100.372543239524
100.372527348521
100.372494786377
100.372565711064
100.372621893502
100.372717063611
100.372749552255
100.372802493584
100.372809479785
100.372946342972
100.37301136785
100.373246165301
100.373356024335
100.373487503431
100.373477184538
100.373515255981
100.373377532479
100.373256748082
100.37303122003
100.372733849386
100.372470284546
100.371988358667
100.37177568795
100.371463197396
100.37126139498
100.371200337247
100.370964994156
100.370794953841
100.370615234553
100.370452977947
100.37021525931
100.369980585453
100.369763733378
100.369580308645
100.369383497673
100.369113564509
100.368875041183
100.369183925236
100.369499075984
100.369692266669
100.369863796633
100.370048794869
100.370249050816
100.37050567939
100.370724666794
100.370878042056
100.371024523335
100.371255313772
100.371101849638
100.370933903338
100.370529860422
100.370581619665
100.370777296096
100.370779069212
100.371267997468
100.371532239919
100.372077435513
100.37239841435
100.372376734608
100.372372432209
100.372443492021
100.372499778484
100.372338425342
100.372484313904
100.372567589268
100.372486554709
100.372630342583
100.372694081363
100.372814965874
100.372826279769
100.372890927633
100.3728893699
100.373035410495
100.37311028177
100.373335851453
100.373452573158
100.373618471797
100.373545430042
100.373643099117
100.373508288691
100.373379854608
100.373152477282
100.372875289433
100.372609116651
100.372136569966
100.371915905878
100.371502550787
100.371430978814
100.371268664301
100.371292988346
100.371211874329
100.371310752305
100.371125063488
100.370941755008
100.370784931994
100.370610707463
100.370412405678
100.370157757178
100.369916920252
100.369675096572
100.369431272039
100.369107665494
100.36874336935
100.368406574426
100.368132362337
100.367710344654
100.367964053402
100.368355977775
100.368645668999
100.368993374011
100.369249973256
100.369463774716
100.369722585868
100.369972253571
100.370233100755
100.370409249195
100.370581268483
100.370741201465
100.370969583004
100.370928828708
100.370824282145
100.37065774862
100.370572570485
100.370494590143
100.370758863408
100.370311548742
100.370020300864
100.369628072544
100.369197479235
100.36873755558
100.368182222169
100.367461795796
100.366421237759
100.364972771573
100.3642566908
100.364409181316
100.365199803388
100.366039010596
100.366787628155
100.367562091152
100.368174602981
100.368737995163
100.369231400768
100.369659623257
100.370029614026
100.370594829179
100.368925618912
100.368395999757
100.368049055319
100.367706795339
100.367371682676
100.367018542359
100.36647808716
100.365831515669
100.36475336321
100.363815699645
100.360778457686
100.358504668022
100.362259554269
100.361357353189
100.360872589354
100.357467730116
100.357463331878
100.357223362218
100.359803461546
100.36110691746
100.361879167143
100.363145227723
100.364054489459
100.365385194474
100.366466869313
100.367199393356
100.367944835032
100.368518268573
100.369075306923
100.369522842124
100.369921175756
100.370273731922
100.370717668281
100.370591081177
100.371232916939
100.369401302634
100.372821705284
100.373029934498
100.37315202841
100.373281920551
100.373368600443
100.373083505539
100.372375193196
100.371447485373
100.370407431868
100.369071087314
100.367270798596
100.365615753599
100.364420490809
100.365581054442
100.3660888791
100.362312405899
100.360193965641
100.359676134015
100.349921554391
100.352932548251
100.352167132326
100.35556543838
100.35797839953
100.365909449063
100.367711763645
100.370085199947
100.369936176449
100.370102500922
100.37023714895
100.370522986312
100.370837758958
100.371148550171
100.371507869365
100.37185183982
100.370447941569
100.368869227453
100.367446161621
100.366382445956
100.365718533474
100.365402208632
100.365397144984
100.365659751704
100.366161083515
100.366873077509
100.367830570503
100.369114841882
100.370761041979
100.372752672016
100.374934367126
100.37710010409
100.379030313316
100.380637301922
100.38195782635
100.383023988837
100.383852756976
100.38448002349
100.384961072073
100.384777437226
100.383862498816
100.383550462852
100.383076700078
100.382375128304
100.381383704386
100.380098416987
100.37846289452
100.376416090777
100.374098519196
100.371825226607
100.369844240612
100.368280675483
100.367102305699
100.36626504483
100.365714136035
100.365443726265
100.36544860224
100.365731629938
100.366305918666
100.367222873898
100.3684987309
100.370050854941
100.3715942275
100.372413210509
100.37261188247
100.372729797542
100.372671308134
100.372646237931
100.372758563922
100.372881406287
100.372885271539
100.372974654821
100.37298589784
100.373169558837
100.373260881315
100.373442015682
100.373602126775
100.373625263653
100.373703344365
100.37377382149
100.37378064823
100.373660545013
100.373539588321
100.373262478801
100.373044217671
100.372856180005
100.372734386017
100.372422878869
100.372086675937
100.37168264259
100.371562039205
100.371395005717
100.371363741312
100.371478317194
100.371402229525
100.371675088145
100.371557158827
100.371368981281
100.371501463726
100.371279233466
100.371113053602
100.370951067414
100.370730067462
100.370484567857
100.370243113125
100.369970903882
100.369659475188
100.369385656657
100.368911310511
100.369125442686
100.369494598028
100.36980533791
100.370064669818
100.370305897822
100.370560311042
100.370775742883
100.370940107439
100.371119521898
100.371345025048
100.37119160303
100.371223347485
100.371264815499
100.371033556569
100.370663058347
100.370357594832
100.370260071087
100.3704258219
100.370776323666
100.371022534633
100.372313869641
100.372309274776
100.372921362077
100.372730830395
100.37255141187
100.372864517442
100.372802801604
100.37291312448
100.373073993807
100.373012516572
100.373118022856
100.373170783117
100.373400006724
100.373685606951
100.373865844063
100.373976496545
100.373969088837
100.373895053641
100.373814420845
100.373699520658
100.373431900665
100.373210049084
100.37286226719
100.372545980585
100.372226900201
100.371839290279
100.371695854461
100.371400151123
100.371514180258
100.371357547073
100.371500832412
100.371597418488
100.371810544233
100.371727422017
100.371984947533
100.371813216894
100.37183778906
100.37169745155
100.371573198386
100.37143258708
100.371260157716
100.371063974978
100.370868019039
100.370645982884
100.370387068185
100.370101245752
100.369803583578
100.369457176935
100.369023511009
100.368541450819
100.368178191657
100.367722908358
100.3680530217
100.3685058168
100.368955168055
100.369203083758
100.369534995479
100.369852414234
100.370147552912
100.370405006093
100.370644181406
100.370865932375
100.371060263572
100.371237897481
100.371429543877
100.371649703588
100.371792250261
100.371665490157
100.371558030682
100.371548175749
100.371240730664
100.370269907654
100.369527394026
100.369271411263
100.369501327538
100.36981364401
100.370488706768
100.370968378827
100.370896349292
100.369969291277
100.371876268262
100.370127222592
100.372418428879
100.37259253436
100.37400856931
100.372275107896
100.371611895592
100.370922654599
100.370065011648
100.369248867237
100.368589187528
100.36806589833
100.36767810389
100.367357669795
100.366793131187
100.366869906873
100.365158664022
100.364478945491
100.363701298409
100.36272481344
100.360597760533
100.359434738306
100.358733431588
100.358969369516
100.350129273571
100.353447985475
100.350242301827
100.349974007882
100.352321361519
100.353766305074
100.352353854018
100.352947863291
100.353193585285
100.358564532157
100.356522923321
100.358258819541
100.356440953531
100.354592623694
100.355328293109
100.357596032356
100.359004342327
100.36005029461
100.360282901119
100.357965326923
100.358751894871
100.361187997455
100.362507863552
100.364288596173
100.363932737129
100.365400683258
100.366497447151
100.367559814627
100.368349118176
100.369047243135
100.369565224089
100.369986981081
100.37033314992
100.370667055151
100.370820358114
100.370833979908
100.370984862246
100.371112398213
100.370253304207
100.369294828362
100.3718310634
100.372895278978
100.373171495893
100.372979026677
100.372936732048
100.373100922585
100.373068587169
100.373284589519
100.373241639463
100.373346451887
100.37341890305
100.373647315888
100.373763899836
100.374056164817
100.374221387433
100.374175429826
100.374228889666
100.374156909529
100.374112867086
100.374093254312
100.373988995602
100.373853326306
100.373610812416
100.37338892552
100.37330626169
100.372872316982
100.372649736125
100.37240661799
100.372307913569
100.372065304724
100.371842579585
100.371555459992
100.371632703434
100.371615091756
100.371763924927
100.371923654638
100.371840678433
100.372045476613
100.371973416104
100.372120890374
100.372009357432
100.371908429913
100.371762886914
100.371762920498
100.371558339409
100.371410468336
100.371227927246
100.371036624108
100.370803911456
100.370576861426
100.370289971545
100.369986599094
100.369680540044
100.369315329896
100.368883260045
100.368523833632
100.368741444005
100.369186386326
100.369551510947
100.369868085751
100.370172800281
100.370457365183
100.370693485897
100.370914613764
100.371122949648
100.371318213977
100.371484664072
100.371651873253
100.371665049048
100.371720771808
100.371519241912
100.371298903045
100.371531751231
100.37070432695
100.370962092047
100.370163172337
100.370623876827
100.371040294673
100.371123000266
100.371408162711
100.37131850986
100.371584776059
100.369707860627
100.373516479173
100.375050178675
100.373120013434
100.371851982702
100.371995957529
100.37041437085
100.369687254344
100.36880986959
100.367983412467
100.367531174507
100.367118382932
100.366725090213
100.366356535099
100.365888875665
100.365314917386
100.365483564168
100.366077372504
100.366673878374
100.36715982813
100.367729143382
100.368237565359
100.368807018054
100.369501422012
100.370169594404
100.3709080717
100.371769069516
100.371034613822
100.370872143274
100.371731241886
100.372100227963
100.372805328275
100.372804585297
100.372719796833
100.372920247385
100.372875720022
100.373063783303
100.373075178249
100.373093141316
100.373271055804
100.373294660552
100.373495103804
100.373791181333
100.373960197744
100.374070913398
100.37406901798
100.37407292477
100.374019365231
100.373881710439
100.373609733839
100.373226944079
100.373002365102
100.373272789661
100.373416407933
100.373583777803
100.373885623673
100.374031088902
100.37415633308
100.374225601721
100.374077081667
100.373938625659
100.373721267616
100.37365787348
100.373552908623
100.373299398304
100.373282963296
100.373209600636
100.373236842147
100.373008300957
100.373055013703
100.372900081796
100.37289170414
100.372725641904
100.372991953935
100.372932460226
100.37313387425
100.373156927747
100.3732109798
100.373205528038
100.372836305794
100.37293678528
100.373062637063
100.373193201008
100.373455001277
100.37349886525
100.373672810639
100.374025966294
100.374209701993
100.374252354621
100.37420560669
100.374050604822
100.37398698604
100.373821598761
100.373772599087
100.373687103352
100.373577748597
100.373395864132
100.373178854022
100.372837572416
100.372725055652
100.372339391987
100.372118388743
100.371954198934
100.371664385847
100.371753977436
100.371633773375
100.371918273174
100.371793092422
100.371912094005
100.371987695019
100.372115689053
100.372069910529
100.372207409976
100.372156124132
100.372223239048
100.372130629955
100.372016943639
100.371880898538
100.37170946151
100.371529655848
100.371355562163
100.371149240737
100.37094393089
100.370683947622
100.370442996557
100.370138388776
100.36981248206
100.36948510708
100.369086776587
100.368617075411
100.368259775322
100.36773800924
100.36708159795
100.366404362857
100.365765700558
100.364857509793
100.364067306809
100.364970577843
100.365814382689
100.366478187778
100.367168751318
100.367755007661
100.368189310377
100.368375753868
100.367999919687
100.3676822027
100.36706608218
100.366383825376
100.365646548944
100.364644776987
100.36547584411
100.366031999922
100.366732648195
100.367286369957
100.367640425788
100.36699305275
100.366409846918
100.365569188706
100.366132222175
100.36668274318
100.367243565812
100.367859513155
100.368375454443
100.368770279586
100.368927903386
100.368418858003
100.367969276079
100.36755692723
100.367108406045
100.366365734699
100.366869632525
100.36748122706
100.367788444625
100.368144221858
100.368539718132
100.369063439185
100.369450848516
100.369735105642
100.36998103698
100.370218781583
100.370472355518
100.370676726717
100.370849484473
100.371018098973
100.370947150503
100.370663001782
100.370326992641
100.369983640157
100.370132408815
100.370239054091
100.370473919355
100.370871716513
100.371155399279
100.371038945433
100.371103745236
100.371226356229
100.370550994183
100.370129589071
100.37050651049
100.370026027373
100.369461422459
100.368719927704
100.367910706442
100.366865902994
100.365751520728
100.365301959978
100.366773962152
100.368011484331
100.368939032285
100.369735538075
100.370320496389
100.370797803736
100.371141952655
100.370884274267
100.371216694113
100.371383294653
100.371496042718
100.371479633661
100.371265180618
100.371347263442
100.371122578585
100.371195390628
100.372003140052
100.370539796622
100.372803187112
100.37322534552
100.374732460228
100.373286655894
100.372748822679
100.371404354932
100.370718013141
100.369819383458