/*--------------------------------*- C++ -*----------------------------------*\
| =========                 |                                                 |
| \\      /  F ield         | OpenFOAM: The Open Source CFD Toolbox           |
|  \\    /   O peration     | Version:  v1612+                                |
|   \\  /    A nd           | Web:      www.OpenFOAM.com                      |
|    \\/     M anipulation  |                                                 |
\*---------------------------------------------------------------------------*/
FoamFile
{
    version     2.0;
    format      ascii;
    class       volScalarField;
    location    "1.3";
    object      p;
}
// * * * * * * * * * * * * * * * * * * * * * * * * * * * * * * * * * * * * * //

dimensions      [0 2 -2 0 0 0 0];

internalField   nonuniform List<scalar> 
74874
(
100.129076941923
100.131461125384
100.13193449645
100.130524285397
100.136039482382
100.13662587251
100.133468010571
100.135076341609
100.137593365028
100.137667016568
100.13555454864
100.134018449518
100.13730213159
100.136752114785
100.137763490375
100.137946896506
100.137328268086
100.134189557719
100.131280552065
100.13071097191
100.132185387422
100.133502535344
100.13198399428
100.131634342645
100.137075580666
100.13721149925
100.132610810827
100.132876434218
100.134039180881
100.132217865177
100.132355372518
100.133853547977
100.132858338591
100.132558171844
100.137144386886
100.13664656945
100.131544504943
100.131960687226
100.133402706788
100.131823422331
100.13039236536
100.130917819362
100.133824341524
100.13697071
100.137418245911
100.137176117782
100.131033064819
100.13029270494
100.129898652955
100.129332530638
100.128319771797
100.128325082298
100.127610141987
100.127957803422
100.128224778477
100.128781565653
100.129982316478
100.129470795021
100.127863183647
100.127575863668
100.127308804698
100.126855703611
100.126900058854
100.127437943675
100.127598937088
100.127934620627
100.129487607792
100.130021332755
100.128897125007
100.128380259607
100.128248227443
100.127910629698
100.128572345376
100.128582301914
100.12957059916
100.130187350767
100.13066452842
100.13144292928
100.130987099636
100.132557424885
100.13216590158
100.133308476113
100.133567847056
100.133352714165
100.132785572747
100.132304340542
100.131807545297
100.128651416312
100.126976392629
100.129007322139
100.127968708128
100.124276734616
100.125225681952
100.127837639685
100.127535232392
100.125791780768
100.124033429761
100.125615757223
100.127178464836
100.126528995812
100.125852963313
100.125436933603
100.123616831973
100.122552058319
100.123748758941
100.123693192596
100.122431640372
100.123569897202
100.125549747306
100.126032600423
100.126379064587
100.12738729213
100.126160251589
100.124513577855
100.126156401324
100.127795400224
100.128072191716
100.125401718327
100.124494207424
100.128377829052
100.129431665773
100.127492270379
100.129471428062
100.13303328711
100.133256813942
100.130845553107
100.13060945549
100.124190315306
100.132340775383
100.131934120931
100.126503622969
100.124029481518
100.128667374643
100.129039976641
100.123369137193
100.123603005792
100.126502373455
100.124909040958
100.123736481542
100.121740903855
100.124627681033
100.127203503703
100.123442899223
100.122886025103
100.125124885512
100.121499906949
100.119152093921
100.12133656295
100.121301732578
100.119090239392
100.121472302911
100.125236102999
100.123258364321
100.124106588282
100.128168521788
100.125611188606
100.122319219631
100.124152495926
100.125213194866
100.126787867361
100.123812694262
100.123531809699
100.12961521997
100.12913796825
100.124730176292
100.127760442315
100.134551714892
100.135429981165
100.125125747281
100.152261282949
100.150219285234
100.122799896609
100.122663042019
100.127990510852
100.117531560379
100.119065088683
100.130117585909
100.12649091662
100.123638509782
100.123568660252
100.128474651539
100.118048252506
100.119193359845
100.119451305145
100.119203536368
100.126027171798
100.122291458148
100.122255770236
100.125889609865
100.11933210651
100.119600442861
100.119369159786
100.117960990875
100.116411785641
100.119352978498
100.117109733244
100.108471077545
100.111073976792
100.082847997498
100.078959842357
100.079323321273
100.085092979181
100.116319428168
100.110636895267
100.09359326786
100.086603487866
100.080282773822
100.081037104252
100.086013499362
100.08299606479
100.083961809381
100.087258803657
100.087246159759
100.083913265699
100.082979511521
100.08564939941
100.084829946256
100.078625159493
100.077354623678
100.081883366528
100.079925928965
100.079757047285
100.078756807624
100.078782244338
100.085007383753
100.084212734221
100.084528214333
100.084913796485
100.080179680211
100.080752678778
100.08210060542
100.0820760872
100.080734432694
100.079969517751
100.080960610521
100.080186193808
100.078705011427
100.078737777734
100.085533249497
100.084595599026
100.084257731425
100.085025575654
100.086303958936
100.0862473157
100.085628468911
100.085807230033
100.086061045698
100.086093802868
100.085186791676
100.084904641906
100.084895752965
100.08507741792
100.08471784764
100.084488213139
100.084145894725
100.085069940034
100.086180155864
100.086490041424
100.085745725456
100.085640850924
100.083915381966
100.084203752138
100.084184625586
100.083979048763
100.084132867711
100.084132258082
100.084161473706
100.08402498351
100.085742497915
100.085716036941
100.085959123624
100.085880753118
100.085715613458
100.08555486859
100.08385009356
100.084035573656
100.084176485814
100.083891673784
100.081569523905
100.081621262872
100.08173409099
100.081762232839
100.081677044822
100.081794137808
100.081744446241
100.081794129322
100.081745712492
100.081731334842
100.084004827023
100.084077696429
100.084007641733
100.084011195011
100.081686398835
100.081535644241
100.081616639815
100.081631520577
100.079631426233
100.079619889931
100.07967209217
100.079731334708
100.079790588909
100.079715666833
100.079802590162
100.079771116208
100.079819729445
100.07978465778
100.079772762313
100.079793820563
100.081755548638
100.08166032921
100.079705248552
100.079722496676
100.079611113683
100.079682723879
100.0779474102
100.07790624255
100.077854679362
100.077886506853
100.077929829796
100.078008225275
100.077951748904
100.078032564014
100.078011338857
100.078059508251
100.078040629792
100.078035990419
100.078045672707
100.077960598054
100.077975289865
100.077896400276
100.076093451035
100.076095852558
100.076053644786
100.075952983145
100.075970934413
100.076016704106
100.076120532664
100.076091089288
100.076183066386
100.0761629602
100.07623264121
100.076245638817
100.076251494148
100.076247420394
100.076148465888
100.076160198818
100.074080234507
100.074003639575
100.073972100348
100.073920548219
100.073674464467
100.073686552956
100.073834668191
100.073945809642
100.073925396691
100.074044844636
100.074046268114
100.07415130645
100.074204619178
100.074258873774
100.074243365132
100.07412596366
100.071557181023
100.071474881806
100.071360691361
100.071335386355
100.071274919134
100.07067952199
100.070645595359
100.071073795568
100.071177031096
100.071191603593
100.071345071898
100.071414801127
100.071607355168
100.071670867623
100.071749736158
100.071689768951
100.067869507416
100.067651155728
100.067667657792
100.067462896173
100.067269065484
100.06747009194
100.066235550628
100.066092648845
100.067023118295
100.066905061186
100.067067239463
100.067335440809
100.06737937592
100.067744184639
100.067924898997
100.067982230367
100.061923130066
100.061771312413
100.061256792439
100.061527314405
100.061398491278
100.060516358838
100.061401482742
100.058879507316
100.058755539027
100.060717268528
100.059822510456
100.060540476058
100.060812758384
100.060812187808
100.061354434519
100.061743879613
100.039441216273
100.039653571356
100.036386800319
100.036061701328
100.039704124835
100.040288991878
100.035530034254
100.036000981281
100.035918734179
100.035827102825
100.035377638291
100.034279700766
100.039122318479
100.038789296355
100.0355398038
100.035979211199
100.041807074181
100.044606431985
100.04468498714
100.042541061312
100.042319150135
100.043958331214
100.046181950349
100.039971167968
100.026800744634
100.069179361877
100.104822481528
100.104499448741
100.068039828704
100.035239189539
100.035454267739
100.174075235047
100.298592652737
100.224048284146
100.222081555677
100.175274572776
100.159913193503
100.145301964336
100.038968712842
100.045509268096
100.043701500798
100.041722692799
100.15109553744
100.151751315038
100.19053994322
100.129483828362
100.130221261115
100.191906331877
100.153013712442
100.151823603188
100.188195581561
100.125148533837
100.122923974527
100.17904493419
100.145632286559
100.162835201979
100.177859175921
100.297872448039
100.367933550251
100.346268661782
100.342989554127
100.361766679552
100.340082124409
100.293638243627
100.459072575022
100.485317204388
100.492388655338
100.526285129101
100.596442373325
100.600648275854
100.521418404823
100.454437593793
100.388012157131
100.350094872489
100.374082582296
100.372591370443
100.369514232473
100.369608188547
100.370522026274
100.3715011381
100.372767710793
100.374582687551
100.376939717941
100.379685036025
100.382554649702
100.385094371885
100.386706414588
100.385480223722
100.383781318417
100.381765532269
100.379571328966
100.377361495046
100.375148860682
100.372936184015
100.370840932538
100.368993808296
100.367480499225
100.366303533429
100.36536332641
100.36457906746
100.363927313248
100.363428992335
100.363148399625
100.363129580019
100.363334354249
100.363818352543
100.36476761897
100.366333873009
100.368171950696
100.369982962363
100.371683914623
100.372787173783
100.372675064839
100.372596749171
100.371949510467
100.371431062369
100.369601571857
100.36768953266
100.365963583099
100.36462524717
100.363870478
100.363481293664
100.363288042835
100.363272103059
100.363494192172
100.363945458908
100.364562877195
100.365305163402
100.366199075706
100.367301888741
100.368707895044
100.370426125136
100.372398253843
100.374501280714
100.37658517305
100.378607885924
100.38055959777
100.38232056227
100.383821437781
100.384915203552
100.385452490607
100.38731134716
100.388572836773
100.387927320765
100.386619482784
100.384790907897
100.382602180154
100.380226310213
100.377844665152
100.375505982183
100.373212598093
100.371038780406
100.369113212191
100.367533754796
100.366311188438
100.365351944219
100.364566797802
100.363919256665
100.363428747995
100.363136479139
100.363088559899
100.363298068274
100.363867567099
100.364981672397
100.366727710162
100.368640366742
100.370408523386
100.372005797347
100.373033528572
100.372917043008
100.373266553945
100.373507452594
100.373502021254
100.373715295948
100.373600530584
100.373817910304
100.373707765467
100.373937760022
100.373894179652
100.373973571653
100.373825102555
100.373769860749
100.373635152878
100.37346626379
100.373440812869
100.373379378826
100.373653502944
100.373827563906
100.373754830905
100.373797938915
100.373597117162
100.373694520821
100.373485580365
100.373602570761
100.373391836435
100.373391429884
100.37315391135
100.372990345354
100.373247630974
100.373260104271
100.37346017026
100.373364669519
100.373554739134
100.373499123359
100.373665890037
100.3736092767
100.373618376253
100.373406020264
100.373393142072
100.373289670363
100.373284382301
100.373205898593
100.373335617279
100.373481042559
100.373482619598
100.373342079251
100.373417569045
100.373244750864
100.373326337294
100.373135277269
100.373110825431
100.372841246163
100.372630208298
100.372899022228
100.37295954014
100.37314557511
100.373112395779
100.37322661986
100.373290701861
100.373203026687
100.373415340087
100.373519531602
100.373602660014
100.373727810422
100.373860747983
100.374002062428
100.373846598754
100.374099667813
100.374063636722
100.374161843157
100.374012277141
100.373970835486
100.373771075021
100.373469024636
100.373137036263
100.372942215526
100.372768483519
100.372561815477
100.372405867223
100.37243670352
100.372612922414
100.372855326602
100.373052529987
100.373242913611
100.373576460525
100.373393868303
100.373210905311
100.373107588069
100.373199507691
100.373111907492
100.372781609908
100.372518092836
100.372401299563
100.372216650968
100.372289852072
100.3723554536
100.372660268276
100.372965212951
100.373051066911
100.373108396292
100.373255385187
100.373348928638
100.37349035344
100.373600564418
100.37370591113
100.373827904359
100.373969684464
100.374119549255
100.374184383042
100.374286839424
100.374112409181
100.37409398743
100.373841250223
100.37363847683
100.373342710401
100.372879981469
100.372420400381
100.372015080535
100.371863905053
100.371617961078
100.371619410503
100.371952379388
100.372295890135
100.372726565762
100.372482608707
100.372165686925
100.371818504098
100.371619055753
100.371429512429
100.371200818597
100.371027685618
100.37115239878
100.371385897761
100.371694912655
100.371881736312
100.371970398332
100.371693093934
100.371867732228
100.372279828679
100.372237170053
100.372614441681
100.372834839063
100.373153281786
100.373327648479
100.37335504996
100.373479207328
100.373596382898
100.373714859949
100.373626812909
100.373844319263
100.373725428166
100.373961269687
100.374083389742
100.373972393064
100.37422138975
100.374359067441
100.37436045581
100.374473108274
100.3743766694
100.374158615468
100.374167012284
100.374141934155
100.374291519826
100.374242183948
100.374358904882
100.374255819874
100.37426476752
100.374091512456
100.374199698978
100.374464781012
100.374462385444
100.37457691891
100.374532548979
100.374372937911
100.374303493262
100.37385478769
100.373663131195
100.373531193062
100.373125215157
100.372639786081
100.372223570809
100.37160538865
100.371370186962
100.371101865522
100.370873682018
100.370668053442
100.370475539535
100.37019129082
100.369898736879
100.369798575339
100.370150775921
100.370532541247
100.370758103213
100.370951080751
100.371166210456
100.371360944771
100.371058989993
100.371235044184
100.371014256018
100.371355339299
100.371986615207
100.373166084774
100.373486245524
100.373519197157
100.373754792233
100.373747205073
100.37395917158
100.373842295851
100.373965988094
100.374199144206
100.374301526423
100.374408957821
100.374318866029
100.374578907674
100.374583023136
100.374696459524
100.374645821095
100.374476211174
100.374409418897
100.374012729553
100.373807803435
100.373424305881
100.37299761766
100.372613219609
100.372411781857
100.371819832536
100.371613670429
100.371431413718
100.371308239102
100.371314999923
100.371010756215
100.370726643292
100.370523333318
100.37016267667
100.370385186634
100.370719154885
100.371011837783
100.371162894712
100.370880776345
100.37059893874
100.370229063138
100.370238841456
100.369812766372
100.369415616997
100.369098777757
100.368861927424
100.368651273253
100.368928461426
100.369260885279
100.369587062736
100.36993304578
100.369642677667
100.369802263743
100.369910307279
100.370144345637
100.370258761569
100.370913931553
100.371628175542
100.372889277331
100.373228774989
100.373374932805
100.373405704909
100.373639244509
100.373657098976
100.37377104313
100.373904467462
100.373886719058
100.373872786378
100.374085269778
100.374190487149
100.37407610347
100.374181451957
100.37427780156
100.374492428185
100.374412795435
100.374664168272
100.374662390242
100.374780748138
100.374724785387
100.374609768488
100.374496971475
100.37417351948
100.373941986213
100.373524268436
100.373092498759
100.37274546658
100.372196425248
100.372045859985
100.371861198306
100.371693251363
100.37158423488
100.371612409368
100.371486425251
100.371722305039
100.371423670373
100.371115815599
100.370807050333
100.370468933322
100.370105063166
100.369688975937
100.369284508282
100.368758755134
100.369071438206
100.369566446592
100.370026754509
100.370277064871
100.370559213642
100.37087139276
100.371182117539
100.371192121394
100.371039192796
100.370632093734
100.369832871962
100.369783710264
100.369649288586
100.369031852491
100.368557837951
100.367315615014
100.367708396795
100.368487172834
100.3692233672
100.369941707136
100.370222581663
100.370100314296
100.369636230354
100.368927282175
100.368200433076
100.367197940986
100.366340218068
100.365957947322
100.364050925738
100.362888092238
100.364300798498
100.365357099394
100.366064174616
100.367041784547
100.36688406381
100.365580254926
100.364832758918
100.363640418182
100.36205704583
100.360918703005
100.361013004199
100.362157374118
100.363806456313
100.364985890001
100.365611034275
100.366598301717
100.367195126839
100.368032016849
100.369068778976
100.369824409125
100.370576557199
100.371219177077
100.37052737359
100.370791576934
100.370575877717
100.371706671859
100.371209911853
100.370659084109
100.370080569244
100.369484514641
100.368810382421
100.367942072195
100.366666795949
100.365894622361
100.364858502117
100.364317207071
100.36384167305
100.362558262048
100.362017197082
100.360837959278
100.355146977589
100.35666108596
100.357378965531
100.359796416465
100.361274484592
100.364084395217
100.364952677393
100.367602439182
100.36850031005
100.370595572707
100.369757669991
100.368658257279
100.368607602808
100.368588453253
100.368668193296
100.369144847305
100.368439663163
100.366812001066
100.366436872138
100.366306679182
100.366360484533
100.368471194028
100.370523840207
100.370486369496
100.371304299704
100.371795939853
100.371790698861
100.372209201369
100.371954592513
100.372119935344
100.372176960936
100.372220594898
100.372134174748
100.3720176028
100.371837713581
100.371307829345
100.371102332157
100.37128321969
100.371349038398
100.37123205655
100.371487538166
100.371475583248
100.371592826424
100.371913535618
100.371984811632
100.372198219097
100.371918375395
100.372167907168
100.37220849991
100.371893927292
100.372080950701
100.371768042827
100.371755546257
100.371292727579
100.371172579746
100.371664411853
100.3716916788
100.371983834446
100.371849576152
100.372087078039
100.371879307972
100.372066667638
100.371861198743
100.371792741605
100.371707008486
100.371816816404
100.371971226367
100.371871256032
100.371716451148
100.371535450949
100.371176186319
100.370720902957
100.370262333384
100.370686312184
100.370755816366
100.371174091293
100.371073552567
100.371501655451
100.371666395015
100.371858256787
100.371638997762
100.371861807134
100.371916914042
100.371742172783
100.37186933477
100.371491953557
100.371573778983
100.37130843369
100.370638878681
100.370423466248
100.369619812933
100.369749726853
100.369871146476
100.370825572859
100.371342913812
100.371378341953
100.371750390785
100.371521588689
100.371859165977
100.371811962376
100.371606583227
100.371768511865
100.37158374559
100.371366158544
100.371185261158
100.371463100869
100.37158448452
100.371713456051
100.371661788459
100.371546590524
100.371320765265
100.370969201877
100.370296824771
100.369558189006
100.370248304949
100.370441433581
100.370922072904
100.370884174616
100.37131388623
100.371519594977
100.371649604696
100.371388443942
100.37166440798
100.371664010984
100.371527740833
100.371558581202
100.371703015725
100.371287028931
100.371357637793
100.370952051454
100.370174175513
100.370259519761
100.371050586819
100.371106563222
100.371648079529
100.371413926202
100.371523751285
100.371574317382
100.3715530015
100.371577348347
100.371589906618
100.371719977507
100.37008634185
100.37107398903
100.371130155833
100.371394833954
100.371872625958
100.371997214312
100.372006072732
100.372260294422
100.372223558987
100.372325415259
100.372396280449
100.372245464122
100.372360051306
100.3721770525
100.37215973036
100.372245142854
100.372293543177
100.372346150186
100.372513318109
100.37255979163
100.372547370729
100.372237507852
100.372166194481
100.372208288856
100.371968721301
100.371621777075
100.371334443247
100.370664048615
100.370064152011
100.36950788167
100.36971423045
100.369919525071
100.369834544899
100.369724471776
100.370182746772
100.370233519297
100.37038127556
100.370413741577
100.370057998254
100.370408030552
100.370679498785
100.370994240536
100.371521464573
100.3718286501
100.371969026654
100.372022393889
100.372081474623
100.372082663325
100.372166173109
100.37238619789
100.372336769547
100.372540574925
100.372447242957
100.372622059137
100.372851064193
100.372750604362
100.372730749156
100.372436785693
100.372317436096
100.37206639808
100.371625156093
100.371167544389
100.37103686966
100.371183845175
100.371301960247
100.371891073515
100.371457486197
100.371579125517
100.371936119285
100.372081515323
100.372323954691
100.372358236119
100.37251271586
100.372443114778
100.372733655335
100.372612934847
100.372676136323
100.372989834296
100.372903064631
100.372880955688
100.372732532185
100.372536163129
100.372747787072
100.372812577361
100.372924950545
100.373053023556
100.37312393731
100.373054870353
100.372931499196
100.372949787556
100.372713580973
100.372688629985
100.372518385743
100.372158930979
100.372174924879
100.37163205066
100.371239349113
100.371147401143
100.370850832034
100.370722921735
100.370642696423
100.370553792882
100.371429698548
100.371942660782
100.372030326687
100.372229110884
100.372263034873
100.372540833657
100.372750070401
100.372512276671
100.372932035188
100.372913201332
100.373061101222
100.373175311915
100.373315440804
100.373420049464
100.373545257271
100.37365483406
100.37379545351
100.373906292838
100.374035502042
100.374137416592
100.374249753558
100.374336045585
100.374428911303
100.374367578031
100.374566540541
100.374492970204
100.374732564923
100.37473889198
100.374867444003
100.374784486947
100.374744285736
100.374647679309
100.374605428378
100.374383141351
100.374091530681
100.373650150726
100.37323907036
100.372917319234
100.372396775765
100.372284243694
100.372123993417
100.372076349917
100.372071621661
100.371818416114
100.371711994822
100.371953633539
100.371959200579
100.372016502964
100.372097613701
100.371849599911
100.371603123546
100.371344281221
100.371048226408
100.370718120761
100.370250665752
100.370533942517
100.370930485073
100.371219648419
100.371492658321
100.37175830398
100.371710567977
100.371419364881
100.371130685193
100.370828305233
100.370429541186
100.369912233522
100.37026281579
100.369756396466
100.36923628
100.368759243696
100.36833976398
100.36764163717
100.368065080264
100.368655410538
100.369018684058
100.36947744119
100.36943750166
100.369287437218
100.368972321088
100.368827350507
100.36869948255
100.368960652565
100.368665549802
100.369547200204
100.371577007088
100.371958881318
100.372339678137
100.372362196461
100.373307810914
100.373181346513
100.373662458441
100.373778233213
100.373997144515
100.373990418679
100.374103149588
100.374292418412
100.374380743739
100.374469758171
100.374533737891
100.374446300711
100.374624663046
100.374575189516
100.374786136425
100.374793759723
100.374901464414
100.374812524671
100.374787425864
100.374669423309
100.374419432285
100.374205058908
100.373776056993
100.373431813556
100.373103625055
100.372632159736
100.372488784629
100.372187722146
100.37230406019
100.372105327756
100.372246717032
100.372253751719
100.372394100214
100.372160599357
100.372176151071
100.372288174188
100.372356685071
100.372311624045
100.372393082367
100.372140607731
100.371904276477
100.371652529612
100.371362313676
100.371050643194
100.370692560871
100.370238921572
100.369815222049
100.369403709371
100.36980267933
100.370253141538
100.370537163877
100.370917345988
100.371236123135
100.371519441917
100.371777851389
100.372037877
100.372052024763
100.37196652473
100.371495853794
100.371907812138
100.371361101748
100.370861561717
100.371356781928
100.370896225547
100.371118114498
100.370750089073
100.37211137267
100.370923966969
100.370399476631
100.369741135683
100.36905311619
100.368414221469
100.367790913386
100.36705254275
100.366088496862
100.36508979839
100.36361937767
100.363780705027
100.363481200558
100.363125463547
100.361747125668
100.36053735396
100.360085301108
100.359937647026
100.353606774975
100.354259027231
100.352956743723
100.353544627468
100.353239298372
100.354973004581
100.355819339815
100.354912006855
100.353439600054
100.355020999751
100.354649319937
100.355007737268
100.355810251144
100.356043683932
100.354984458809
100.355371276815
100.358386890013
100.354066817396
100.353941751621
100.355912036535
100.355927085768
100.356256180992
100.358044271455
100.359322440933
100.360365359496
100.359710420187
100.358161227395
100.359578321059
100.360893071509
100.359680187161
100.358162672973
100.358318378402
100.360005137625
100.361471038441
100.363240201491
100.364672764083
100.365284991904
100.363698595921
100.364989394263
100.366449891853
100.366927577291
100.368344183145
100.367570203442
100.368706927498
100.369626798869
100.370448489429
100.371093289769
100.371682835421
100.371834868255
100.372115414269
100.371927988161
100.371122083777
100.371552222924
100.371397723413
100.37236410686
100.371357390349
100.368901931139
100.368429786174
100.367846706369
100.367211022218
100.366597338292
100.366071352385
100.365493557497
100.364816127772
100.36406183533
100.363429443234
100.363424403479
100.363740537978
100.363852708334
100.363810873493
100.363474878373
100.362872032777
100.364262550638
100.364514679147
100.365306970197
100.366683842844
100.368787807992
100.369251925707
100.367181609225
100.365600068189
100.364533515475
100.363984276505
100.363680614051
100.363508689872
100.363479283343
100.363646734793
100.364029184755
100.364572877599
100.365231480997
100.366026392104
100.36700028691
100.368235489482
100.369773069401
100.371597230757
100.373604022278
100.37560408463
100.377437229328
100.379087569717
100.380548758865
100.381800650479
100.382731010341
100.383192590144
100.383154097984
100.385424329607
100.387294153508
100.388564205102
100.389133583395
100.389137233708
100.388471037914
100.38712047447
100.385221342747
100.382945652596
100.380465729516
100.377979377833
100.375557133054
100.373203045067
100.370978835352
100.369025184446
100.367433832477
100.366208021776
100.365266998896
100.364511893885
100.363899590353
100.363452698853
100.363192838407
100.363152862935
100.363386174009
100.364042115296
100.365297220449
100.367174911617
100.369133398956
100.370858924934
100.3713521047
100.372742426119
100.373598146909
100.373470141348
100.373746404466
100.373456049802
100.37401481254
100.374132104538
100.374115181243
100.374217210286
100.374209181257
100.374304703401
100.374394535559
100.374467163641
100.374591082057
100.374516346092
100.374677844707
100.374645988375
100.374829288531
100.374843141788
100.374932670278
100.374861118472
100.374836290068
100.374727980083
100.374485356762
100.374288870059
100.373788884687
100.373581985587
100.373344570797
100.373194313084
100.372927839531
100.37275208174
100.372467625952
100.372510718957
100.37246206386
100.372490809628
100.372598901484
100.372523310701
100.372756275887
100.372583921733
100.372322585784
100.372519813774
100.372560192272
100.372594229299
100.372670752217
100.372467816217
100.372430131931
100.372087001918
100.371823428676
100.371563981602
100.371249203396
100.370915757248
100.370517667094
100.370249356985
100.370464534669
100.370870948616
100.371199983254
100.371519516223
100.371777059461
100.372039644098
100.372315429765
100.372302385896
100.372372800522
100.372284187605
100.372095629527
100.372280842146
100.372076825948
100.372333235572
100.371855398637
100.372310640374
100.371897841443
100.371568540934
100.371839362833
100.37198033807
100.371768788156
100.37259553684
100.371807302657
100.369420007658
100.367428390792
100.366165058279
100.365510657455
100.365094870641
100.364670636902
100.364381003096
100.364070642662
100.363807471028
100.363509927376
100.363371001903
100.363209646533
100.363035673769
100.363266785402
100.363038999621
100.363763076106
100.363668516444
100.363851610764
100.363681301765
100.363605419881
100.363816431202
100.363950944807
100.364340299963
100.363753413221
100.364060054754
100.363670178908
100.363304742676
100.362324286365
100.360945495434
100.360783455196
100.359791493677
100.359616012178
100.353871620378
100.354953443049
100.354698360761
100.355715679647
100.355749942441
100.357337478855
100.358337977843
100.357566368697
100.356702515923
100.357325036879
100.357796562704
100.357744850606
100.358071362512
100.358549442955
100.357723365645
100.360294606361
100.360569928098
100.358561234677
100.360360695297
100.360411286217
100.356451602489
100.356105803138
100.354533167003
100.358283648616
100.360933947802
100.364191357028
100.367026149835
100.368464527218
100.369069435869
100.370177469125
100.370914896966
100.371123790521
100.371049187934
100.371499833198
100.371341766636
100.371571970492
100.371574909777
100.371369771858
100.371481429545
100.371226131499
100.370949062283
100.371274367894
100.371446759157
100.371362906943
100.371102949035
100.37069573563
100.370090582394
100.370798655543
100.370901822666
100.371264709584
100.371211501832
100.371442811423
100.371629083695
100.371581947063
100.371320693358
100.371567794432
100.371621724008
100.371202645897
100.371399118503
100.371528530539
100.371085250293
100.371099472784
100.37056631667
100.369687511201
100.368583928583
100.368145115789
100.366278103609
100.367845994793
100.367684062712
100.368860208334
100.369769616822
100.370696707385
100.371152731992
100.371128998871
100.371504602768
100.371335538504
100.371693368262
100.371532920017
100.371500938581
100.371509028715
100.371431733616
100.371362884128
100.371220639672
100.370073774444
100.370969359838
100.371154881566
100.370122932598
100.367474225397
100.368739595329
100.369029246642
100.370367783439
100.371079721051
100.371155984281
100.370556589318
100.367926059931
100.369323629422
100.369815736179
100.370764007019
100.371239210646
100.370894475349
100.370640094135
100.370407639819
100.369969800267
100.368824407302
100.369760172893
100.370781403017
100.370847462293
100.370941709475
100.369380619896
100.370142497917
100.370351661698
100.371083816867
100.37156753621
100.371685798291
100.371690036794
100.371744225041