/*--------------------------------*- C++ -*----------------------------------*\
| =========                 |                                                 |
| \\      /  F ield         | OpenFOAM: The Open Source CFD Toolbox           |
|  \\    /   O peration     | Version:  v1612+                                |
|   \\  /    A nd           | Web:      www.OpenFOAM.com                      |
|    \\/     M anipulation  |                                                 |
\*---------------------------------------------------------------------------*/
FoamFile
{
    version     2.0;
    format      ascii;
    class       volScalarField;
    location    "0.4";
    object      p;
}
// * * * * * * * * * * * * * * * * * * * * * * * * * * * * * * * * * * * * * //

dimensions      [0 2 -2 0 0 0 0];

internalField   nonuniform List<scalar> 
80571
(
100.265720208913
100.265303181972
100.264762592747
100.267653093005
100.272112268943
100.272140188552
100.272536682853
100.273235541219
100.271065003608
100.271119819513
100.271311579307
100.271194834061
100.271305302764
100.271481873934
100.271234240862
100.271088518394
100.273252861577
100.272527019439
100.272127929737
100.272103887276
100.272811136842
100.273357142175
100.27108001479
100.271393382344
100.271653026132
100.270965171192
100.270965155597
100.271653268564
100.271393557298
100.27108042492
100.273361358553
100.272814411156
100.272105445735
100.272128438083
100.272526285178
100.27325097622
100.271090066181
100.271235567577
100.271480937327
100.271306314671
100.271196289616
100.271312864695
100.271123039658
100.271067634312
100.273234599939
100.272536089327
100.27214057159
100.272114061305
100.272824065468
100.273373646463
100.27108477381
100.271399156986
100.271662091467
100.270974227059
100.27097465473
100.271663106833
100.27139977506
100.271084526584
100.273370032216
100.272821040523
100.268067588653
100.26833805805
100.267691600567
100.267397723939
100.267759670631
100.268033869879
100.268033852851
100.267759281335
100.267396523363
100.267691259581
100.268339056692
100.268067804237
100.267654099415
100.268034878276
100.268753813199
100.269152311322
100.26920446612
100.269333708267
100.268958624898
100.269331982021
100.269395135808
100.268988524699
100.269298967697
100.269194146234
100.269157254275
100.26874930638
100.268043083839
100.267647163863
100.268063633562
100.268331359353
100.26768432235
100.267389512181
100.267751170897
100.268025926665
100.268026107207
100.267751711444
100.267389864389
100.267684534968
100.268331485749
100.268064162107
100.267646310008
100.268042731447
100.268748704175
100.269157325614
100.269193052016
100.26929552319
100.268986426503
100.269392727405
100.269329486967
100.268956970498
100.269330674345
100.269203335238
100.269152520169
100.268753011876
100.268034117669
100.265263566528
100.266290490242
100.264610737617
100.265254620004
100.265572325458
100.265316124605
100.265871590658
100.263978038793
100.26395220652
100.264973404776
100.264973594503
100.263950900381
100.263975522593
100.265870741956
100.265318964769
100.26539421112
100.264763467718
100.265263074125
100.266290957405
100.266457400776
100.267696287084
100.267908021918
100.266797723591
100.266698739159
100.266648989242
100.266705745936
100.267826770406
100.267659553109
100.266448510595
100.266286134564
100.265263465399
100.264762140671
100.265387494494
100.265309826107
100.265863354196
100.263968709537
100.263943555105
100.264966235993
100.264966362124
100.263943887423
100.263969350206
100.265863781295
100.26530933787
100.265388154028
100.264761196121
100.265264034879
100.266285608773
100.26644974392
100.267658801881
100.267819325138
100.266700793311
100.266646338864
100.266696278273
100.266791825175
100.267899790088
100.267695244016
100.266460383769
100.264600552289
100.25654229478
100.256873129979
100.25692568174
100.257118945483
100.257383741622
100.266271513187
100.26494774369
100.265115028189
100.265114370175
100.264945297675
100.266272953106
100.265573063508
100.265249139535
100.265302572378
100.264612160849
100.264594668051
100.264716025091
100.269103942673
100.26636132417
100.266291327155
100.269017393617
100.264710321339
100.264595975536
100.26462604097
100.265227614787
100.265299756464
100.265718556342
100.266563994069
100.267305589694
100.267175696646
100.267713544905
100.269956936418
100.269988152303
100.268577118913
100.26718440898
100.266197121863
100.265584721988
100.265299844828
100.265299828549
100.265584650242
100.266196926759
100.267184037138
100.268576716182
100.270426339715
100.270651194467
100.269144091016
100.267494472693
100.266280452406
100.265440229014
100.264936853053
100.264688582426
100.264688603909
100.264936929106
100.265440400613
100.266280755453
100.267494931307
100.269144884456
100.270650951868
100.270426172899
100.268482847801
100.268788976214
100.268607030636
100.268146276601
100.267919785102
100.267347910981
100.26812854878
100.267862214938
100.266354598572
100.263289568641
100.257967875844
100.256551324204
100.256873305696
100.256940024612
100.257131660954
100.257389068653
100.257389019124
100.257131458782
100.25693936617
100.256873183176
100.256551359842
100.256619196275
100.256606688565
100.255436219735
100.255300189678
100.255374193335
100.25523505283
100.255304049115
100.255365636967
100.255365681206
100.257384159894
100.257119078161
100.256926043498
100.256873285306
100.256541951504
100.256604523295
100.256617347307
100.255438035271
100.255299444549
100.255372115607
100.255250180932
100.255314970408
100.255373005774
100.255372962362
100.255314922816
100.255249113631
100.25537200583
100.255297910496
100.255437953988
100.255881858698
100.255884814061
100.255763850448
100.255804466354
100.255683303774
100.255722921003
100.255719619129
100.255719695623
100.255722729128
100.255304058115
100.255236115238
100.255374297394
100.25530160558
100.255436217076
100.255885074977
100.255882248577
100.255763626571
100.255806589172
100.255690951027
100.255728449055
100.255726579878
100.255726503758
100.25572844198
100.255690186562
100.255806531707
100.255762604177
100.255512606681
100.255558664943
100.255557859588
100.255512035086
100.255583120277
100.255522858436
100.255540235078
100.255527386154
100.255527420017
100.255540026508
100.255523510661
100.255683996097
100.25580438151
100.255764742969
100.255512212172
100.255557931198
100.255558898938
100.255513234319
100.255584805496
100.255527305505
100.255543565363
100.255531702806
100.255531665011
100.255543511134
100.255526244106
100.255584973513
100.254566750806
100.254499889384
100.254537013964
100.25453477869
100.254495182561
100.254565460468
100.25453322749
100.25454730666
100.254556598998
100.254556700931
100.25454721632
100.254533817768
100.254564901285
100.255582809469
100.255751796223
100.254685096356
100.254495260405
100.254534683466
100.254537020609
100.254501076881
100.254565529027
100.254536923684
100.254552371272
100.254561977922
100.254561787859
100.254552203978
100.254535786665
100.253314758394
100.253341782854
100.253287192096
100.253341602377
100.253339671014
100.253282940926
100.253336490449
100.253309923442
100.253315254965
100.253345326461
100.253345636866
100.253314788846
100.25331074462
100.253334870369
100.253284348501
100.253339371589
100.253340861009
100.253287858884
100.253340251127
100.253316303924
100.253321880354
100.253353423441
100.253352927046
100.25332240337
100.251996980967
100.252029596162
100.252051910109
100.251980611807
100.252064660981
100.252061763274
100.25197625491
100.252044327601
100.252020805465
100.251986010879
100.252048444231
100.252050045798
100.251984805408
100.252022053021
100.2520438288
100.25197753576
100.252060450289
100.252062191822
100.251979916885
100.252051467035
100.252029197268
100.25199400998
100.252061413227
100.252059551161
100.250468944969
100.250303692133
100.250426704727
100.250442068912
100.250301425856
100.250477637249
100.250470916711
100.250291746131
100.250431670324
100.250413076251
100.250290695501
100.250450184574
100.250460530746
100.250287134257
100.250414217132
100.250433307525
100.250293444812
100.250468196814
100.250471623908
100.250296557516
100.25044090559
100.250421560034
100.25029703691
100.250477213235
100.248181121521
100.248176371539
100.247725342322
100.248031476001
100.248042120188
100.247742616355
100.248175241753
100.248161448604
100.247719642792
100.248025061275
100.248013427189
100.247706820982
100.248158907348
100.248159511113
100.24770241944
100.248013393402
100.24802921027
100.247721798866
100.248159250214
100.248164509522
100.247727593156
100.248041338913
100.248030565199
100.247722408783
100.242826739679
100.244102934312
100.244096834701
100.242824958756
100.243645944374
100.243640638393
100.242865054722
100.24410989666
100.244075129765
100.2428096186
100.243617597919
100.243621413481
100.242804028691
100.244076115484
100.244073729666
100.242793499251
100.24361818057
100.243624385808
100.242814074046
100.2440752855
100.244082932967
100.242822279377
100.243642459634
100.243644207376
100.237073904805
100.235231471243
100.238116829842
100.238115957524
100.235227519788
100.237066968234
100.237047863991
100.235385067516
100.238213776373
100.238100710372
100.235189341099
100.237022249953
100.237037547965
100.235204492607
100.238091395314
100.238075460611
100.235172362936
100.23704118937
100.237040128333
100.235203336197
100.238109056254
100.23812765611
100.23524126076
100.237062192743
100.245987882617
100.246088353656
100.244256342136
100.246760714565
100.246817917364
100.244591798673
100.245992004098
100.245904538485
100.244340662315
100.24663337855
100.246756336497
100.244246960415
100.245973540783
100.245984055105
100.244565317226
100.246759683421
100.246680362228
100.24418809813
100.246063347539
100.246018167216
100.244316774423
100.246826161012
100.246892610158
100.244631388884
100.281341520617
100.276133418313
100.27652225833
100.28170236343
100.277525831015
100.277569365395
100.281785627907
100.276564835447
100.276123237976
100.281334420825
100.277349978662
100.27733172682
100.281293048825
100.276084667146
100.276490541904
100.28165370526
100.27743714401
100.277423371567
100.281622002416
100.276483781168
100.276101105291
100.281316878014
100.27738826978
100.277399063085
100.315351405856
100.332222431407
100.321027162293
100.331425230174
100.314167487069
100.330922131826
100.320701376063
100.332531315773
100.315126812593
100.315212250328
100.332650381418
100.320820117593
100.330988244058
100.331568944801
100.321205951642
100.332369302858
100.348928993082
100.348933776349
100.332260183764
100.315360976007
100.31544503069
100.362400538062
100.39161724184
100.37877821849
100.37879494741
100.387749591908
100.377325397634
100.365063249736
100.321041546243
100.331450876286
100.330842153955
100.314130982187
100.368878580936
100.389707412887
100.370332452941
100.37034852613
100.377147791598
100.386861677546
100.364023415658
100.320586592497
100.332410923212
100.349052453543
100.31500010223
100.315003145746
100.332426410567
100.320596705567
100.330814366503
100.31411197531
100.3313887539
100.321007607014
100.332222969129
100.315345815613
100.349000732312
100.348970768903
100.378893215051
100.387576054455
100.364940054603
100.377184738816
100.370245213861
100.370450814562
100.377258399432
100.364199660752
100.387035310338
100.377808805054
100.377837848496
100.387031932632
100.377301081106
100.370499049084
100.370401153854
100.377335946073
100.387712292945
100.404950770069
100.407780856674
100.413376992056
100.413379743827
100.407803058732
100.399798674201
100.399780755063
100.414551910459
100.42058718224
100.419597560414
100.419612009338
100.418971070302
100.417570348002
100.41561045146
100.405002217133
100.408641913301
100.40754941641
100.397354049042
100.417175114319
100.418805895699
100.417662845573
100.416073041721
100.416103621556
100.417387198753
100.40808834084
100.397064030886
100.407637193184
100.416686964959
100.418599269807
100.421784142387
100.422263315298
100.422159258678
100.422697494287
100.422949239184
100.422970987606
100.422985034078
100.423011991801
100.423027476729
100.423038424074
100.423047232667
100.423079940142
100.423154179464
100.423255834915
100.423379570401
100.423572229182
100.424090805927
100.425419771647
100.428044134543
100.433702173163
100.442357911458
100.459185955459
100.45158901794
100.405813771132
100.36241192526
100.316584701417
100.291938042557
100.306994580097
100.307778673107
100.305599118688
100.30535407102
100.3062614677
100.307362517646
100.308535638621
100.309911951813
100.311440696997
100.312906208833
100.314090064195
100.31488387721
100.315245880935
100.314501559429
100.313544246905
100.312398721853
100.311071066953
100.309514363981
100.307774053016
100.306032942309
100.304457279263
100.303146713365
100.302061181657
100.301063710468
100.300033990383
100.298922016254
100.297901702883
100.297398551003
100.297921274463
100.299777183564
100.302571437575
100.304285270612
100.304288814546
100.30389431137
100.303914938288
100.303977147034
100.304002939232
100.304046630246
100.304079593688
100.304096513269
100.304146583528
100.304181549998
100.304230017182
100.30433112116
100.304406387282
100.304496611944
100.304490476605
100.304488345784
100.304543315668
100.304701027857
100.30459670513
100.30450732382
100.304425735396
100.304356971316
100.304247208344
100.304230516799
100.304182633691
100.304163295197
100.304157689758
100.304117078291
100.304116369173
100.3041000657
100.304036959662
100.303999861011
100.303963642254
100.304035973774
100.304068147394
100.304129674205
100.304146198999
100.304191095819
100.304208351886
100.304272404748
100.304290850688
100.30439338496
100.304471123777
100.304572023504
100.304572433822
100.30470825298
100.304805390009
100.304710576179
100.30457593785
100.304441449547
100.304332036377
100.304328957605
100.304247542495
100.304230643888
100.304178136911
100.304158638119
100.30410024789
100.30405527668
100.304033239141
100.304097588482
100.304139815662
100.30419137029
100.304216315831
100.30428082667
100.304305343271
100.30441511473
100.30443543493
100.304490889203
100.304506502753
100.304789524653
100.305012441016
100.305221343407
100.305279594712
100.305208536187
100.305489786214
100.305511547995
100.305768461973
100.305869610495
100.305778008159
100.305494617815
100.305281873554
100.30501042417
100.304609809096
100.304466091868
100.304409781
100.304360233204
100.304265836929
100.304240610479
100.304189168445
100.304113267968
100.304115460878
100.304079985704
100.304079777785
100.30412123622
100.304139591626
100.304163532122
100.304257632426
100.30432264086
100.304359764749
100.30449371636
100.304504837652
100.304452445523
100.304658175861
100.304782633694
100.305248289096
100.305555213372
100.305733217421
100.305779887449
100.305771649423
100.305493604793
100.305444409695
100.305062929157
100.304898557396
100.304660032368
100.304634272459
100.304499229481
100.3043864207
100.304392988783
100.30437618294
100.304231237006
100.30419046107
100.304157512937
100.304172699288
100.304228158777
100.304256382625
100.304328825771
100.304463079877
100.304499179839
100.304615818982
100.304773490469
100.304863763188
100.305118443271
100.305585387668
100.30591284106
100.306072426634
100.30602770662
100.305770550192
100.306076427175
100.306035000287
100.306184044855
100.306337460984
100.306215114975
100.306101255013
100.305909642712
100.305619801273
100.305206313568
100.30498360649
100.304932790405
100.304762851525
100.304711527595
100.304583405015
100.304448440597
100.304348480287
100.304269792354
100.304268135643
100.304389516091
100.304461259176
100.30457584913
100.304727287787
100.304798547281
100.304934613558
100.304957427654
100.305191476288
100.305351123595
100.305741990187
100.306018577266
100.30620626015
100.306241399153
100.306318408563
100.306008820212
100.305913120756
100.305575503584
100.305382506387
100.305125606782
100.30506373109
100.304910983357
100.304844935429
100.304730393231
100.304591229668
100.304471711819
100.304464109228
100.304356867349
100.304416765772
100.304468006687
100.304534541234
100.304594597489
100.304729074011
100.304874283441
100.305011369191
100.305087361372
100.305269445322
100.305327776066
100.305665346236
100.306212878997
100.306524093521
100.306608995823
100.306481707494
100.306618024227
100.306801400662
100.306725845286
100.306630776584
100.306343494095
100.305865650065
100.305603124025
100.305315725717
100.30530150547
100.30528776724
100.305099604937
100.305130582097
100.305090727669
100.304906887465
100.304789588467
100.304643054203
100.304521299139
100.304540239624
100.304684514377
100.304823447459
100.304959330708
100.305100725378
100.305288480079
100.305343141078
100.305521789137
100.305627493542
100.305930196566
100.306094059874
100.306536964728
100.306825687475
100.306831924422
100.306780946873
100.306511327967
100.30658214916
100.306874202974
100.306985576778
100.306773650645
100.306960482779
100.306910424064
100.306912628694
100.306941326808
100.306667365465
100.306284970609
100.306065424355
100.305819177591
100.305561710691
100.305567430439
100.305523005697
100.305348052065
100.305379367086
100.305290294077
100.305128940476
100.304990143599
100.30491335771
100.304787275745
100.304613980426
100.304700721495
100.304801788837
100.304887537207
100.305046114376
100.30514534051
100.305298386683
100.305436452607
100.305508892541
100.305668476858
100.305773776864
100.30603902901
100.306262077233
100.306314378041
100.306751967992
100.306978966781
100.307069461618
100.306830735303
100.307097679753
100.307038890387
100.307120666234
100.307082920931
100.306820276094
100.306462397775
100.306262545617
100.30596756105
100.305983097946
100.305872508564
100.305698686706
100.30561650336
100.305471939378
100.305315160092
100.305201041271
100.30506347766
100.304836877315
100.304863578126
100.304807718146
100.304844672677
100.304618968012
100.304608993256
100.304626049343
100.30434182991
100.304312449837
100.304268754955
100.304264850483
100.304005262441
100.303951223157
100.304277501036
100.304497148676
100.303162159438
100.300509380296
100.298439945005
100.297587044547
100.29778425092
100.298621202157
100.299669487379
100.300699314914
100.301704239079
100.302771744862
100.304018684142
100.305509933009
100.307167679531
100.308851654582
100.310392943594
100.311732092626
100.312894534877
100.313875568447
100.314643411256
100.31522956299
100.315808692553
100.316197108177
100.315653945871
100.314927320614
100.313984919144
100.312838625483
100.311499242638
100.309928115251
100.308167537682
100.30639001974
100.304770089736
100.303416163242
100.302317195897
100.301330561254
100.30031190478
100.299172900566
100.298047633124
100.297340435597
100.29761596362
100.299291223562
100.302141501748
100.304123514883
100.304296236185
100.303847380372
100.303871329972
100.303917155808
100.303933723194
100.303972690125
100.304001415581
100.304028890601
100.304081600846
100.304119095573
100.304212027111
100.304336014938
100.304486183629
100.304644029231
100.304656772271
100.3045083286
100.304453334052
100.304186700519
100.303555480217
100.303605216295
100.303752843611
100.304380186703
100.304238380269
100.304171167865
100.304434788529
100.304457636419
100.304549404154
100.304324833704
100.304599855591
100.304845304669
100.30453619385
100.303921995885
100.304364909401
100.304530365977
100.304725165728
100.305372237394
100.30529626277
100.305193684789
100.304900975248
100.304776686859
100.304837719574
100.304876239079
100.304620995701
100.304323106621
100.304066772606
100.304076000393
100.304208589189
100.304171606158
100.304134975013
100.304106116682
100.304069584991
100.304045737428
100.304012400759
100.30400980574
100.30403808308
100.304058187913
100.304112583414
100.304146513229
100.304210373636
100.304314916772
100.304404417555
100.304508051355
100.304529923867
100.304360215935
100.304250737207
100.304088834406
100.304068704732
100.303971675162
100.303904272711
100.304056337148
100.304097924287
100.304212505953
100.304396044232
100.304588193543
100.304791094315
100.304823271804
100.304764166934
100.30480223089
100.304578777703
100.304323350662
100.303724523643
100.302699560016
100.301445713084
100.299528171469
100.300816876395
100.301385239246
100.301577292987
100.301971299659
100.302350057496
100.302741555226
100.303698142081
100.303741942392
100.303501741484
100.303015647445
100.30275351546
100.302601463756
100.302253567398
100.303191876864
100.303413743432
100.303915429967
100.30396958753
100.303966622623
100.303909463483
100.303891760409
100.303806278059
100.303982758238
100.303954271339
100.303941629902
100.303974526025
100.304005853931
100.303990491462
100.304040163291
100.304085728641
100.30422861913
100.304494229095
100.30471252815
100.304977741025
100.305005823676
100.304889098196
100.30440380364
100.303797350753
100.303791305926
100.302748413355
100.301446349352
100.299274870793
100.296699402906
100.293444977172
100.294128672063
100.295154719666
100.295976234613
100.296860913291
100.298621704423
100.299024649222
100.298503833246
100.298213261545
100.297232184897
100.29639915257
100.298565474382
100.299834090127
100.299765186096
100.302554481685
100.303284356862
100.303706248284
100.303951982168
100.303888985086
100.303907446403
100.303889786061
100.30391887625
100.30395810428
100.303949026284
100.303982341965
100.304032794763
100.304078856655
100.304238303481
100.304547897152
100.304778381543
100.305045046946
100.30503273452
100.304895933887
100.304385263271
100.303754019457
100.302604748486
100.301295695397
100.298898074121
100.299059709998
100.296439773922
100.293016901702
100.288942608917
100.283809153105
100.262881432963
100.272419363267
100.283038532822
100.285042661986
100.289479272833
100.290351623804
100.284998872612
100.28818537113
100.290405414046
100.292268081159
100.294027856182
100.295139052131
100.296516828224
100.29697233264
100.296145853643
100.294504083294
100.29317928677
100.291970360933
100.291323797174
100.294257958757
100.296633953801
100.297503260241
100.300435489837
100.302785847188
100.30368801481
100.303865783581
100.304001647457
100.303941000996
100.30396894121
100.303989942236
100.30395639025
100.303930806609
100.303920798657
100.303912048717
100.303880119668
100.30390737199
100.303908008978
100.303947985526
100.303982970727
100.304036565936
100.304079364538
100.304236670838
100.304544668555
100.304773506185
100.305042884642
100.3050253796
100.304905483824
100.304365292759
100.303752098164
100.302599934546
100.301283578153
100.298886156649
100.296195767368
100.292722599523
100.292660814153
100.288294808833
100.283144349089
100.258208799939
100.230073128498
100.168340645609
100.183660808028
100.1883272402
100.192381061624
100.192341185693
100.200347463659
100.197122645517
100.193769386568
100.195662175784
100.201042316309
100.200164524361
100.197772553225
100.208373204569
100.202506083363
100.202549320396
100.210728191368
100.20359558124
100.202188869578
100.210317970981
100.20562677584
100.199144197168
100.208134597092
100.204452574576
100.197420225866
100.205958066202
100.202703727843
100.195053876359
100.206602535689
100.207790764812
100.205184217657
100.204178601581
100.201993340615
100.200394336134
100.199949247627
100.200046733244
100.2000365983
100.200367334427
100.200623084504
100.200624293385
100.200275989663
100.200487263124
100.200654318077
100.20068518069
100.200500527126
100.200477464218
100.200850523706
100.200526061169
100.200359596965
100.200308351559
100.200495778346
100.200628131172
100.199916255031
100.199928598523
100.200586410808
100.200468151757
100.20027607181
100.200374740838
100.200531381255
100.200858728815
100.200480928504
100.200503562869
100.200686465415
100.200655000693
100.200489865354
100.200278841633
100.200626106344
100.200628157786
100.200370405911
100.200033992026
100.200043442092
100.199948026234
100.20040328364
100.201386435812
100.202479989668
100.202481500166
100.201374851366
100.201869274387
100.202863087355
100.202901881291
100.20189091944
100.202022652808
100.201764723121
100.201241908223
100.201980906173
100.202215553028
100.200757513664
100.201254528585
100.200948389635
100.201117641843
100.20153990109
100.200647142747
100.201329776303
100.201806538699
100.201918399504
100.202341077875
100.200907379149
100.201907390605
100.201173072584
100.201067249226
100.200671300225
100.201176164193
100.202972380424
100.20168998632
100.200473933112
100.201628708238
100.201612275323
100.20045113189
100.201152845372
100.200666895998
100.201056044535
100.201184107574
100.20190639312
100.20089466634
100.202336557485
100.20191529104
100.201798260808
100.20132733861
100.200636803295
100.20153729721
100.201115698664
100.200942281352
100.201248358195
100.200747118379
100.202212166811
100.201971254516
100.201222453758
100.201741771912
100.203980543421
100.203281332253
100.204384362648
100.201730796029
100.200115177159
100.204348292467
100.203410966452
100.202812270661
100.203525396891
100.201704993271
100.202755833105
100.2003864017
100.20629980576
100.205672686002
100.205941689272
100.202088028729
100.201233460939
100.201239150507
100.202098014308
100.204196116014
100.204003961552
100.203307552398
100.20353880942
100.202836049457
100.203430325621
100.203237111068
100.201095794577
100.202147417435
100.203343115045
100.204305569463
100.202372820221
100.202748290771
100.203537281908
100.204758431334
100.202166932459
100.201512964033
100.201994048189
100.202057013874
100.202026665987
100.201598781781
100.201803723801
100.202630276847
100.202626137142
100.201789444644
100.201578681194
100.20202935544
100.20197859317
100.202145305731
100.204760599577
100.203530278097
100.202743800648
100.202358127628
100.204308088965
100.203351530024
100.202148544753
100.201095405315
100.203253444783
100.202288565017
100.201067307221
100.20225480292
100.201434382758
100.202795895852
100.201129204786
100.200371727406
100.202689116547
100.203369318163
100.204059007597
100.202767851574
100.204379257313
100.202439272727
100.201534372182
100.20394775283
100.205454989414
100.206006136325
100.203748332192
100.205124319865
100.201285879891
100.202156415242
100.20457184847
100.203686165936
100.206064803064
100.205337704371
100.206247065987
100.203811204211
100.200025698714
100.202361686983
100.200587973387
100.197341090378
100.190586247724
100.191658594452
100.185687078847
100.190461300111
100.180305685373
100.173212315697
100.176422029956
100.180417170868
100.160997923275
100.237847947017
100.259750587039
100.224148882141
100.2502675733
100.269538349354
100.277646681005
100.283974556701
100.283671853348
100.279295156887
100.272918796009
100.280685110511
100.284331584218
100.286952114788
100.2890559761
100.286677349302
100.290204441629
100.292087931751
100.293743798322
100.29484413995
100.294752884731
100.293072705817
100.29145047589
100.290665328962
100.292512042267
100.293829304906
100.293888941253
100.295880740663
100.293502555705
100.294215723101
100.291705283966
100.290504183372
100.290102221789
100.290518065493
100.292925786278
100.289412733134
100.290189530078
100.290325962509
100.292992140943
100.289664217822
100.293844040005
100.293398439033
100.294814538954
100.296079094075
100.297773778797
100.297242412731
100.296274482449
100.295385932908
100.294266669899
100.292669592179
100.291404393262
100.290252288663
100.292008162865
100.291187739255
100.291445705093
100.293505348625
100.292401640361
100.293971548241
100.290191354645
100.301945051362
100.301486646142
100.301041216367
100.300429770629
100.299744778323
100.299754870996
100.303898025803
100.304842283818
100.302572685006
100.300804639105
100.30210920808
100.296175407405
100.296222563978
100.297045511491
100.299164851174
100.29782317071
100.300502347603
100.298086317386
100.298819731077
100.298721370106
100.298316848306
100.29818925223
100.297453585607
100.297387288908
100.297108284629
100.296231314747
100.295076686509
100.293624716707
100.293303979444
100.294732385627
100.293470193949
100.291994833932
100.292042279592
100.290036882909
100.289483801458
100.289983708217
100.292553565295
100.296412302969
100.297050755624
100.295765379358
100.296241914242
100.292854046363
100.302992022087
100.304663328404
100.3044886712
100.304413401959
100.304304449281
100.304934919414
100.304862263473
100.305820974376
100.30601139476
100.306193764587
100.304986942081
100.304543356356
100.303024573532
100.302840985713
100.302821668596
100.304332245648
100.303370656834
100.302795898038
100.302556057652
100.299263510094
100.301426568279
100.300232466462
100.298791191522
100.299680352848
100.299422396273
100.299837444208
100.299764107148
100.299521613463
100.298228625385
100.300523501788
100.302638222438
100.304352545802
100.304742104083
100.304964922016
100.30496243985
100.304704620661
100.30450225943
100.304396432221
100.304464041113
100.304357717815
100.30414496666
100.304054670561
100.304004545196
100.303961509125
100.303921104612
100.303876005917
100.304298566433
100.303821537284
100.303848007474
100.303874877385
100.303862935458
100.303863168394
100.303880546686
100.303891016081
100.303920329213
100.303958509421
100.303992327594
100.304044014091
100.304086664882
100.304226568075
100.304487011581
100.304702153546
100.304964494519
100.30498792473
100.304892999387
100.304379785173
100.303783599664
100.302629220523
100.301319745285
100.299027088925
100.296418684078
100.293095985782
100.289093003583
100.284112170212
100.263315424465
100.258596430903
100.230600522961
100.168350780916
100.183867526966
100.188470734839
100.192508261135
100.192503483552
100.200494107393
100.200450477023
100.198059974848
100.20865864934
100.202584967758
100.202694048405
100.210858757798
100.203686601121
100.202292673515
100.21046529752
100.2057751242
100.199263932304
100.208197809297
100.204551621233
100.197465353775
100.206017667336
100.202775037353
100.195088533675
100.206344550725
100.205699664809
100.20603335081
100.206167735505
100.205226769057
100.207860580052
100.201743759457
100.204394047072
100.202127860663
100.204360245792
100.200161237017
100.201070298874
100.202291132358
100.203535539731
100.204239896826
100.203109146915
100.202430322962
100.20087919245
100.20140274574
100.20389752869