/*--------------------------------*- C++ -*----------------------------------*\
| =========                 |                                                 |
| \\      /  F ield         | OpenFOAM: The Open Source CFD Toolbox           |
|  \\    /   O peration     | Version:  v1612+                                |
|   \\  /    A nd           | Web:      www.OpenFOAM.com                      |
|    \\/     M anipulation  |                                                 |
\*---------------------------------------------------------------------------*/
FoamFile
{
    version     2.0;
    format      ascii;
    class       volScalarField;
    location    "0.6";
    object      p;
}
// * * * * * * * * * * * * * * * * * * * * * * * * * * * * * * * * * * * * * //

dimensions      [0 2 -2 0 0 0 0];

internalField   nonuniform List<scalar> 
81489
(
99.9984015483762
100.003225712471
99.9964365276839
100.00070504368
100.006020189455
100.002694185818
100.002316545584
100.002368641708
100.002538753215
100.00215468169
100.00275982534
100.005846057102
100.009690379669
100.008524882223
100.006726989529
100.007731505295
100.004879013319
100.002495619665
100.002513707959
100.004892609429
100.007705381672
100.006682987168
100.008490575561
100.009644762821
100.005823903035
100.002728999608
100.002123490679
100.002513401095
100.002341037421
100.002284993224
100.002660261766
100.00599968144
100.009810756392
100.008658097024
100.006719623692
100.007731564324
100.004919887747
100.002559934116
100.002543111548
100.004906695811
100.007755139868
100.006766712757
100.008697474519
100.009849968132
100.003008273805
100.002296475461
99.9980194184693
99.9985306293194
99.9998875059919
100.000306598722
100.000334329942
99.9999101905437
99.9985115577216
99.9979842924593
100.002266398427
100.002979789953
100.000702422989
99.999635728353
100.000336123771
100.000574060938
100.000527545305
100.000201377074
99.9998624449431
100.000837733636
100.002970196753
100.002243687784
99.9979595953383
99.9984700798389
99.9998664919966
100.000291345341
100.000261527772
99.9998364253007
99.9984929758488
99.9979976132242
100.002275280887
100.002996557344
100.000840688366
99.9998763080608
100.000218118164
100.000545475993
100.000592561922
100.00035192995
99.9996514095484
99.9964132349248
99.9985454157227
99.9984541138113
99.9871499627703
99.9895448721189
99.9896787526142
99.9999878601309
99.9946089492187
99.9926941490785
99.9951147614843
99.9972711364457
99.9973012997307
99.9951175764843
99.9926449686025
99.9945682612506
99.9999578471564
99.9999672070314
99.9964404609796
99.9964019522522
99.9985395374161
99.9973842957542
99.9973606861824
99.998588829187
99.9964849507711
99.9963264142684
99.9999188103761
99.9999670552
99.9945548617401
99.9925975983733
99.9950686914165
99.9972554435053
99.9972274358057
99.9950566238895
99.9926417966873
99.9945935173329
99.9999964257883
99.9999534868823
99.9963249356518
99.9964978774378
99.9985959626728
99.997378435989
99.9974028923602
99.9944648902912
99.9944164497353
99.9871933704547
99.9573932340036
99.9573133732611
99.9517152680347
99.9526882129719
99.9578536339035
99.9882354724802
99.9952651526068
99.9945997843976
99.994595639851
99.9951911608128
99.9978228116377
99.989677513588
99.989506965534
100.003237235923
99.9984470487546
99.9944377795899
99.9943917676079
99.998169997133
100.002817746417
99.9894972589926
99.9896803742612
99.9881778234978
99.9882156852352
99.9896850644367
99.9895355704271
99.9518494893944
99.951627575945
99.953135049305
99.9531229477884
99.9516088032655
99.9521360011916
99.9529616471133
99.9529825489289
99.9579027386117
99.9881995575033
99.9822985269333
99.9655893467918
99.9591584083843
99.9589979203991
99.9565423922736
99.9575967690209
99.9521533100122
99.9527877412156
99.9517691777289
99.9573387548152
99.9871219042644
99.9871652434225
99.9574192425797
99.9519009517035
99.9528647070455
99.9579431631123
99.9578945295998
99.9527676448414
99.9521533312297
99.9576092514209
99.9574788214482
99.9567539815611
99.9567630056286
99.9575053525414
99.9576225921491
99.9565486770909
99.9578676869317
99.9578625817485
99.9584883961809
99.9584498864639
99.9574953358354
99.9516274068079
99.9531470479177
99.9531613136395
99.9516494221935
99.952170534438
99.9530159636523
99.952994391015
99.9565589137668
99.9578699443577
99.958502247534
99.9584504305511
99.9579408850079
99.9579436795543
99.9584656345427
99.9585042240251
99.9564193342271
99.9562334733886
99.9562329880165
99.9564148603355
99.956359534128
99.9562277979183
99.9579325376324
99.9567644605698
99.9567552066764
99.9574699622666
99.957581930631
99.9565529636172
99.9578634273903
99.9562358097345
99.9562393224665
99.956430447204
99.9563755432541
99.9562485411551
99.9562447635224
99.9563746490352
99.9540090854166
99.9540364324164
99.953958966255
99.9539566053562
99.9540264022342
99.9539916786747
99.9539538110849
99.9539555713661
99.9562300325354
99.9579287174089
99.958436899001
99.9584786074265
99.9564121056425
99.9540255272807
99.9539611964216
99.9539668209769
99.9540450279886
99.9540198475741
99.9539836340991
99.9539770955782
99.9520489870744
99.9520729289973
99.9520807507959
99.9520131239668
99.952008446293
99.9520623698424
99.9520521356895
99.9520123391484
99.9520117838107
99.9520411004301
99.9539919614587
99.9563605098507
99.9569285520454
99.9542944173521
99.9523188741351
99.9520582860339
99.9520102309413
99.9520223313149
99.9520917740376
99.9520902862537
99.9520546397644
99.9502915987295
99.9502890815396
99.9502998343608
99.9502940715937
99.9502432683225
99.9502375762406
99.9502628191653
99.9502600126774
99.9502271018517
99.9502286105219
99.9502423508361
99.9502560024338
99.9502331425796
99.9502548096959
99.9503079704458
99.9503172376166
99.9483954147895
99.9483777739549
99.9483752553381
99.9483711499446
99.9483679938401
99.9483208850041
99.9483170507928
99.9483120937853
99.9483068118666
99.9482773972883
99.9482837835215
99.9482902428772
99.9482995652676
99.9482996080947
99.9483397655471
99.9483802653054
99.9460919545211
99.9460846249084
99.9460340364334
99.9460286277003
99.9460303503966
99.9460290961355
99.9459546638759
99.9459563104437
99.9459753017137
99.9459440763895
99.9458757306047
99.9458899195194
99.9459149467967
99.9459118582867
99.9459071331711
99.9459934694417
99.9427581766297
99.9429029342951
99.9428755480162
99.942791626977
99.9427500310606
99.9427564085086
99.9427685174144
99.9426802629564
99.9426785006865
99.9427110190667
99.9426410932423
99.9425206192079
99.9425362201664
99.9425950450309
99.9425547306678
99.9425709169821
99.9374822705725
99.9377732527801
99.9376678054154
99.9375401585876
99.9376626105012
99.9376540468309
99.9375077128158
99.9375031202121
99.9376910208381
99.9376459734818
99.9373871042928
99.9372500408741
99.9374139393073
99.9374096702806
99.9372039588644
99.9371205413133
99.9224252113622
99.9240519891177
99.9241395376912
99.9227470249458
99.9226419964769
99.924525772402
99.9245628258171
99.9227540753871
99.922744228646
99.9241354871389
99.9239037884638
99.9223132106382
99.922147748616
99.923616559881
99.9235896074301
99.9222537758704
99.9358276291638
99.9366260919806
99.9335585912281
99.9335278028994
99.9369370269714
99.9367005747611
99.9333469610798
99.9334197765803
99.9368103330341
99.9371260953804
99.9337005246493
99.933346204916
99.9363127748877
99.9356663374713
99.9322524147123
99.9323415622895
99.9908328941678
100.044444437704
100.001457501083
100.001701832879
100.044871254263
99.9915897609575
99.9909257311261
100.044948995742
100.00195902225
100.002687244894
100.046382732742
100.07862491508
100.078287594073
100.046133308492
99.9925378197899
99.9924833395983
100.116627555493
100.216338339318
100.173624998306
100.173708108152
100.146684361921
100.140476047754
100.139083186268
100.002173675427
100.045177086901
100.076195321745
99.9912939895208
99.9907952935868
100.044426609791
100.001114554332
100.0011519842
100.044301671312
99.9908209889513
100.076329209414
100.076411442046
100.17062462165
100.144300013234
100.138795291768
100.137674930267
100.143166644245
100.170580639825
100.171021205126
100.144288577231
100.139336134201
100.140381882843
100.146615219926
100.23865416744
100.277940586913
100.256484625561
100.256443657259
100.27785348199
100.267860188929
100.238639195404
100.333813079713
100.368719616517
100.341297867368
100.332359579361
100.332580627065
100.340704618307
100.27667488772
100.237002863532
100.267870257726
100.333559194715
100.368013069137
100.389056331394
100.395716095138
100.398127427173
100.402222895469
100.403679263372
100.403388840117
100.402879403799
100.40251207817
100.402317743179
100.402250307655
100.402317526627
100.402452487803
100.402673322147
100.402934464553
100.403190438566
100.403593046336
100.404492734223
100.406612979977
100.411028475407
100.41913633251
100.43487627338
100.458778087177
100.497616039791
100.493618855822
100.429803134097
100.373022516574
100.315572750261
100.283267471127
100.304193444336
100.303557534912
100.301250305929
100.301532368916
100.302599680447
100.303684789664
100.304928623233
100.306538252776
100.308463958746
100.3104937291
100.312353329881
100.313774657194
100.314519196711
100.313368470048
100.311924788331
100.310260196325
100.308508663799
100.306743265586
100.304980875582
100.303283426521
100.301752496159
100.300493909121
100.299520676712
100.298810265769
100.298327875532
100.297993217386
100.297742035672
100.297510186251
100.297234318745
100.296888934211
100.296457020579
100.296030331123
100.295922158984
100.297019412923
100.299760493899
100.301587190501
100.301895956891
100.30195691254
100.301903315886
100.301921079566
100.301879236672
100.301922603183
100.301853121374
100.301835633088
100.301789512201
100.301714930835
100.301546967189
100.30136628378
100.301409664004
100.301507537115
100.30181999454
100.30175510893
100.301625325762
100.301763132783
100.301832522636
100.301865663958
100.301887262231
100.301951980431
100.301901451805
100.301942005312
100.301915598694
100.301975809818
100.301855352003
100.301823793632
100.301950106334
100.302001531936
100.301956748392
100.301975578022
100.301942148367
100.301990075568
100.301932502695
100.301911773044
100.301885860301
100.301815912645
100.301909350092
100.301790937539
100.301925496485
100.302106489389
100.302081047514
100.302075608268
100.3019462535
100.301962035486
100.301986942822
100.302032103393
100.301994434939
100.302019349813
100.301996211317
100.302040430539
100.301910797918
100.301977214783
100.30208124614
100.30209957196
100.302066808018
100.30207351294
100.302052757016
100.302083818274
100.302065516094
100.302043206545
100.302094492773
100.302129451877
100.302229445266
100.302240630678
100.302200964342
100.301960498
100.301749077012
100.30205458219
100.302358532125
100.302248057848
100.30236471357
100.302384079476
100.30234636396
100.302223189756
100.302266844616
100.302164283971
100.302113261162
100.302123904426
100.302117757593
100.302150499534
100.302120046783
100.30219339933
100.301986910366
100.301670070749
100.302083291728
100.302195449884
100.302178218781
100.302217668449
100.3022344984
100.302207341396
100.302236500915
100.302302675525
100.302356501666
100.302351461835
100.3023230729
100.302466720559
100.302517907372
100.302546116182
100.302464381798
100.302649008566
100.302851408646
100.302760721949
100.302664873063
100.302580328957
100.302424217406
100.302423015439
100.302436443341
100.302406428174
100.302328017636
100.302248322577
100.30231304124
100.302324598456
100.302261406774
100.302285652107
100.302097936177
100.302036284419
100.302287727052
100.302377130393
100.30236808063
100.302415005386
100.302399700139
100.302478855703
100.302480508309
100.302517449109
100.302559215605
100.3025750305
100.302750751328
100.302928512192
100.302871110414
100.302949319478
100.302835812775
100.302629417217
100.302670976453
100.302917219627
100.303108036134
100.303206705186
100.303179810372
100.303021121668
100.303214922892
100.303320761192
100.30336310987
100.303469554551
100.30345434536
100.303367129416
100.303216565731
100.303025926627
100.302745407627
100.302733496993
100.302631333892
100.302591616363
100.302560280745
100.302583157091
100.302495815403
100.3024726354
100.302489304995
100.302296707811
100.30239552907
100.302522320527
100.302589661124
100.302569509632
100.302622875512
100.302728362707
100.302664878609
100.302729941976
100.302720862514
100.302772774065
100.302814785328
100.30284516336
100.303127135206
100.303314667986
100.303410287756
100.303384360941
100.303411806852
100.303271093333
100.303236666044
100.303018808826
100.302947824805
100.302874449225
100.302856675633
100.302786123569
100.302718319102
100.302767860371
100.302750271135
100.302772295575
100.302679770388
100.302471491068
100.302698638621
100.302716176605
100.30278170231
100.302864240186
100.302821223614
100.302834682304
100.302940775633
100.303016772282
100.303005484698
100.303084247194
100.303322308714
100.303443960737
100.303482349018
100.303439016113
100.303235016588
100.30348708195
100.303467994668
100.303647372302
100.303623329769
100.303477616732
100.303361002982
100.303176345081
100.303142291254
100.30302309401
100.303055868297
100.303032911132
100.30295560563
100.302974055262
100.302937427495
100.302891096426
100.302918383332
100.302895273816
100.302583620314
100.302774970589
100.302849257108
100.302770603028
100.303028001551
100.302972683216
100.303036330754
100.30300889101
100.3030778897
100.303119833288
100.303154953534
100.303200521694
100.303256258095
100.303442806298
100.303625757591
100.303575989306
100.303607887125
100.303456051685
100.303499389421
100.303674932333
100.303835111735
100.303812934682
100.3039676546
100.30400386092
100.304002791172
100.303815307368
100.303638902075
100.303361966004
100.30325058311
100.303222128418
100.303218378902
100.303141187909
100.303111985927
100.303198006769
100.303060298998
100.303140304807
100.303042918719
100.303028435463
100.302843883086
100.302274330868
100.301492606228
100.302378469261
100.30177674535
100.301048879703
100.300195829213
100.299094077834
100.301008643125
100.300460690102
100.298006520127
100.296499106302
100.296051201589
100.296189028562
100.296525241084
100.29687140584
100.297196691583
100.297490340466
100.297788157865
100.298143771127
100.298616990989
100.299293907406
100.300221929047
100.301442714755
100.302943036725
100.304612766787
100.306315116479
100.307989738638
100.309636995953
100.311196858623
100.312537600477
100.313604195571
100.314337901169
100.315306650085
100.315819559088
100.315005622236
100.313811298599
100.31231200259
100.310589793928
100.308780964032
100.306969982264
100.305184230765
100.303481049423
100.301940598702
100.300660786666
100.299656696094
100.298922279898
100.298428025787
100.298104491157
100.297884317726
100.297700856082
100.297491831566
100.297204620723
100.296772183711
100.296250311825
100.295820498597
100.296523803329
100.299323827034
100.301341761515
100.301883508949
100.301959194797
100.301890815228
100.301897229134
100.301845803857
100.301880248349
100.3018006626
100.301804939906
100.301742031043
100.301665160524
100.301507565896
100.301296149101
100.301330074961
100.301005949794
100.300560937974
100.299926401624
100.300037812275
100.300219491724
100.30044694338
100.300802369658
100.301306669098
100.301214909168
100.300920645368
100.300732312875
100.30063971989
100.301067113766
100.301160860935
100.301347085923
100.301572375935
100.301801839545
100.301998034735
100.301720481242
100.301456997267
100.301154792772
100.300606522091
100.299776997605
100.300276698019
100.30098112024
100.300916033976
100.30139072614
100.301645263728
100.301212928659
100.301647233475
100.302016011206
100.302429572728
100.302351309398
100.302089537351
100.302398100853
100.302613295525
100.302887458636
100.30262248767
100.302370455757
100.301943357395
100.301215062406
100.301579352432
100.302043793713
100.30216681409
100.302684826515
100.302900091362
100.302400942646
100.302550612336
100.30296494844
100.302966079307
100.303258362014
100.303225127562
100.303001717924
100.303093032852
100.303013125657
100.302764496734
100.302571095145
100.302619356042
100.302613199481
100.302561731831
100.302451015237
100.302354577418
100.302222542097
100.302153789287
100.302105795855
100.302089384534
100.301998545955
100.301948550655
100.30192016813
100.301898030353
100.301893096774
100.301953678712
100.301893470408
100.301899962182
100.301856115263
100.301897561054
100.301835365127
100.301817372354
100.301759948391
100.301683232956
100.301517617251
100.301476388831
100.301636857221
100.301763546618
100.301812796254
100.301797776469
100.301793773271
100.301789225259
100.301741205271
100.301664874756
100.301501396073
100.301296872799
100.300950452195
100.300528176281
100.299827872398
100.299842051567
100.298995583324
100.297990125956
100.296285242237
100.296463561996
100.297867612218
100.298105768052
100.29903507103
100.299064220962
100.298065511928
100.298525099072
100.298948954987
100.299415816484
100.298233324775
100.297168150753
100.29558627241
100.296965689748
100.297485534686
100.298216860568
100.29880834588
100.299377853228
100.300153196316
100.300232805516
100.299894938919
100.299145058117
100.298488961344
100.298326473931
100.299013401944
100.298712274965
100.299675215385
100.301568449344
100.301970493783
100.301857781995
100.301817989376
100.301747025195
100.301699817372
100.301702134645
100.301864293305
100.301691865429
100.301700600402
100.301877034312
100.301967276645
100.301896208553
100.301893417025
100.301859739191
100.301837351844
100.301842055084
100.301846302642
100.301790355875
100.30174229204
100.301667546895
100.30149196009
100.301310435571
100.300940535555
100.300527862926
100.29984040865
100.298930106063
100.297962002009
100.2961443684
100.296139560458
100.293917815916
100.291057089452
100.291422883398
100.291885101211
100.292875399801
100.293787345555
100.294673515207
100.29248601396
100.290464623391
100.292122469322
100.293592680213
100.294495079016
100.295768298051
100.295866794885
100.295163178093
100.29381067232
100.293248995362
100.294785500782
100.296187105686
100.296637654936
100.296382965022
100.298049172464
100.299147590583
100.301322835535
100.301827960676
100.301753321355
100.301117278946
100.301736895035
100.301645387754
100.300962226652
100.30161946661
100.301617287385
100.301700287583
100.301877516414
100.301968271421
100.301896862852
100.301894340254
100.301859993737
100.30183912166
100.30188173142
100.30180688696
100.30180949406
100.301748241065
100.301677446615
100.301498477117
100.301318952726
100.300967807353
100.30051982967
100.299855215828
100.298964846935
100.297986034093
100.296258912569
100.294122087435
100.291322279504
100.291041479511
100.287321674348
100.282979914802
100.261107218993
100.260692813661
100.264302825184
100.281358941406
100.283840025405
100.282941010942
100.287319397858
100.287857275175
100.288465626795
100.282529874338
100.286028811145
100.288379708862
100.284754381079
100.280079334089
100.272179709431
100.279439852868
100.284712710441
100.284550109088
100.287466881522
100.289533105509
100.287500942182
100.290432112988
100.291821890025
100.293212986044
100.294418171775
100.294416250115
100.292869434432
100.291631337395
100.291248869178
100.292700231745
100.294029962937
100.294626982622
100.295713109726
100.293420304588
100.29443948214
100.294208933078
100.294188976623
100.294153695093
100.294350093516
100.293911390283
100.291785389737
100.293163628714
100.291628650814
100.295638064141
100.293192249484
100.293281973577
100.293626273183
100.29360081398
100.293235006554
100.293869264472
100.29357289123
100.292898133145
100.291816819268
100.29105194752
100.292973274115
100.291809670056
100.291978884463
100.292576267175
100.29324281182
100.291868670413
100.291293732725
100.291335803749
100.300012389614
100.298856806904
100.298076524366
100.298390146548
100.300310207194
100.301665860917
100.300151743832
100.299646260413
100.3000144307
100.296316219793
100.297877815488
100.296382651581
100.294112351744
100.293774329037
100.29576308865
100.297146415263
100.29605133962
100.296009988119
100.294752843809
100.293985778912
100.294634851281
100.294625938466
100.298435960559
100.300383988786
100.301685467302
100.302241811417
100.302312809776
100.302249768942
100.302049048055
100.301976313301
100.301902337154
100.301843002466
100.301575613022
100.30121393891
100.300830636082
100.300828622658
100.301341268458
100.301884389274
100.301961949158
100.301892532432
100.301899452417
100.301847974098
100.301884875454
100.301903484294
100.301838516621
100.301820196654
100.301766501912
100.301696652799
100.30153248869
100.301341638012
100.301033295336
100.300567147866
100.299907022616
100.299085395618
100.298050339088
100.296439202593
100.294406513158
100.291797806867
100.288405840069
100.282431210224
100.281326748194
100.264927479457
100.246230931263
100.168994630193
100.183847974983
100.202120798636
100.205333014024
100.202022392498
100.197280720308
100.207916273914
100.204447422273
100.198927853402
100.209988425019
100.206249419441
100.199284858382
100.209010041959
100.205631311229
100.198445984215
100.207702025886
100.204360080627
100.197199298668
100.20619602321
100.202935014006
100.195984474717
100.204110415593
100.201722278716
100.202372791115
100.201771156894
100.200563280667
100.200654943904
100.200879693963
100.200344686578
100.200302259171
100.200627182369
100.200130663518
100.199789600292
100.200362832045
100.20028999022
100.199992390733
100.200055209682
100.200277502047
100.200506918433
100.200965664916
100.200599015716
100.200291231652
100.200053424835
100.200551604486
100.200403577981
100.200093843692
100.199470586159
100.199411209364
100.19998324537
100.200343753836
100.200521228481
100.200034669668
100.200283369138
100.200598538277
100.200970485641
100.200500006593
100.200271027999
100.200056144582
100.200007433554
100.200293960814
100.200368182963
100.199782478412
100.200122571181
100.200620418018
100.200304861813
100.200359873063
100.200824581408
100.200614117372
100.200540885343
100.201753443669
100.202342619238
100.20169764904
100.204070805591
100.203537947862
100.204658564172
100.202745990143
100.201968134872
100.203792212876
100.203380393628
100.201777332933
100.201356752672
100.201682514016
100.199085454024
100.199797478174
100.20035195847
100.200473634105
100.200561603142
100.200296423085
100.199738091211
100.200243024773
100.199422131167
100.199480722542
100.200392560326
100.199625048834
100.201429908636
100.200947410005
100.200738171137
100.200423439499
100.200559853803
100.200445595876
100.200418199647
100.200446896252
100.200904931203
100.200238507017
100.20013649927
100.200106791197
100.20028222729
100.200823423431
100.200345816285
100.200364725668
100.200448446307
100.200576699115
100.200167385204
100.20034679486
100.20076433544
100.201495760709
100.200057330975
100.200098661872
100.199941961111
100.199958191837
100.200132105111
100.200064517273
100.201494681379
100.200776628939
100.200354255231
100.200167403788
100.200576398521
100.200722493879
100.200929920465
100.200932701557
100.20071428526
100.200578896814
100.200664747093
100.200660918961
100.200582785215
100.200726086365
100.200345161941
100.200365996413
100.200449612461
100.200957181154
100.200103841314
100.200330902793
100.201906112448
100.201301064164
100.201535683862
100.201182843369
100.202300292834
100.201604619067
100.200855735265
100.201225503877
100.201524634578
100.20153644832
100.201208427222
100.200841956587
100.201600508664
100.202308382615
100.201174065498
100.201525965581
100.201302829485
100.201910791876
100.20087407126
100.202526430737
100.201893609459
100.201869686233
100.200811548394
100.200709962686
100.200003122023
100.201150435566
100.199678131575
100.200884971011
100.201482551307
100.200424615118
100.201721148584
100.201269537556
100.2033115045
100.204362521406
100.201168220525
100.195949974914
100.202881019587
100.206163663337
100.197153856711
100.204298315123
100.207659445417
100.198379912051
100.205560124774
100.208965678742
100.199169262634
100.206141534986
100.209969434586
100.19883535314
100.204379028921
100.207689592306
100.197169167416
100.202163085609
100.202621643892
100.19987664738
100.197119731035
100.197132430825
100.20242768113
100.199643782314
100.197518553044
100.193686289666
100.198499648137
100.198584921413
100.193834947647
100.18654832802
100.186251857908
100.166031862319
100.238913046733
100.238200094073
100.166693724891
100.169636637799
100.184013029008
100.201889793449
100.205076551786
100.1939199577
100.188559378726
100.193805486872
100.192675791363
100.197937106964
100.205918990778
100.201936205524
100.201939112257
100.206400530146
100.203232346664
100.202441682163
100.205345348339
100.202369080109
100.201656761889
100.203691121952
100.201193402953
100.200765662033
100.20210222323
100.199977954714
100.203964765945
100.202979528781
100.201126693666
100.201715396264
100.203198569624
100.201748633957
100.201342359896
100.200003046467
100.202434043865
100.202742633702
100.20010484594
100.204149203148
100.204773065542
100.201685905596
100.205102554848
100.206414295966
100.202809043942
100.205848295207
100.206798963718
100.202922971862
100.202356255063
100.190012014741
100.178887058692
100.17922770046
100.187703766176
100.184902808442
100.183709079897
100.190809506118
100.17873738089
100.182610997861
100.176303686387
100.176793824014
100.184830802646
100.229974198582
100.254985102129
100.230984871831
100.159720013659
100.160842609337
100.185722249678
100.152032148282
100.137129842959
100.206126872065
100.247698061449
100.270591887916
100.279618533463
100.285355078365
100.287561869437
100.287335774551
100.282776812916
100.275128595892
100.261623056368
100.268458542197
100.276801813513
100.284313900622
100.288119959529
100.29142020253
100.294162642991
100.295027849433
100.298095808775
100.299159366352
100.29835265517
100.29779274687
100.297785572935
100.298351797657
100.301215962678
100.301591999778
100.301866353768
100.301957431313
100.301897582548
100.301905024445
100.301861862272
100.301884432738
100.301932026401
100.301863947183
100.301845394262
100.301798882516
100.301722401547
100.301568708771
100.301381613469
100.301099230049
100.300674047604
100.300065977618
100.299258282389
100.298310120341
100.296749047086
100.294965616294
100.292799573581
100.289973799719
100.285969965559
100.281522087506
100.274927876126
100.254942604055
100.229453314169
100.18473768972
100.177119537985
100.176265895398
100.182548158566
100.194073131995
100.188215334083
100.192926892231
100.192657947777
100.198102130322
100.205942098038
100.201846930554
100.201891470819
100.206404849785
100.203242239931
100.202465383996
100.205356907162
100.202375126125
100.201689380615
100.203713494749
100.201199667035
100.20079829302
100.202093296716
100.199989665729
100.201853097222
100.20436518876
100.203366731823
100.201784100691
100.201349747671
100.201711363256
100.20196456206
100.203774978065
100.203537041213
100.204686256876
100.202761997802
100.202439473801
100.203176426768
100.201272894958
100.200737674306
100.202187001134
100.203976662526
100.202983606727
100.201133751041
100.20172535254
100.200426115323
100.201490778696
100.200886135766
100.199685804054
100.201161127217
100.200007324123
100.200708159667
100.200807969091
100.201879978162
100.201914819253
100.202550473931
100.200885660887
100.200150498639
100.200793687995
100.200161812851
100.200777639309
100.200355420756
100.200887753454
100.201505378211
100.20095996926
100.200351936823
100.200500505274
100.203107146894
100.205205288669
100.202873397703
100.201891098429
100.201926914561
100.202382575783
100.202080587263
100.202678412199
100.202675030618
100.202053834671
100.202356395992
100.201901138677
100.202854999781
100.205227793934
100.203124904807
100.203123634288
100.204025702021
100.203039654216
100.20204338684
100.201961842309
100.202310258432
100.201429488755
100.200492617754
100.20189151591
100.201437836856
100.200076338489
100.202549625174
100.202773110265
100.201974647205
100.202168590738
100.202821550342
100.204092283329
100.203528077596
100.202737571692
100.203370160759
100.205949945906
100.205440169438
100.202556561308
100.202624498797
100.207533528478
100.207762631954
100.201703559857
100.192763840705
100.185217498944
100.178321753558
100.182315113275
100.183028536575
100.187573948793
100.189898686097
100.18516154435
100.173813047457
100.174536157478
100.17421365897
100.170788007329
100.161183391787
100.161746728601
100.179189180639
100.175288034924
100.1775544823
100.19611027243
100.198008508347
100.210297025742
100.228102822467
100.217850027695
100.222925831843
100.242943867414
100.262449365804
100.245228319976
100.265471008301
100.27683283689
100.281652240053
100.275139490881
100.274239604346
100.281865074871
100.287585710468
100.291159910027
100.293763393388
100.294432436815
100.293168710379
100.292683477981
100.300748953354
100.300585983657
100.300314847955
100.296709096872
100.298212374909
100.300213774753
100.298054617298
100.300042866213
100.300474837771
100.30174994072
100.301464845433
100.301096332553
100.301653235108
100.298944688938
100.299929869776
100.299570039668
100.298805052424
100.299378734548
100.298693671023
100.298675599893
100.298589141327
100.298684103537
100.298822644208
100.29918047725
100.299140747465
100.299431199469
100.299739560649
100.299794329762
100.299120837142
100.298491251407
100.298244150842
100.298643343046
100.298797591914
100.298825833627
100.298794340143
100.298945800788
100.29901232885
100.298957733637
100.298912947315
100.298747824224
100.298626506508
100.297818995053
100.298300812542
100.298500114279
100.298812134263
100.29917528743
100.299272194964
100.299111120033
100.298882324693
100.299111307443
100.29938870467
100.299445996709
100.299118884534
100.299390473348
100.29907829329
100.298999110534
100.29956457813
100.300363444705
100.299834958098
100.299791661245
100.299317901894
100.298761858023
100.298426024575
100.299179799981
100.299871299249
100.29980875692
100.29915004142
100.299587755654
100.30005458064
100.300015951994
100.299868585712
100.299233189261
100.299287157286
100.299992322064
100.30009248806