/*--------------------------------*- C++ -*----------------------------------*\
| =========                 |                                                 |
| \\      /  F ield         | OpenFOAM: The Open Source CFD Toolbox           |
|  \\    /   O peration     | Version:  v1612+                                |
|   \\  /    A nd           | Web:      www.OpenFOAM.com                      |
|    \\/     M anipulation  |                                                 |
\*---------------------------------------------------------------------------*/
FoamFile
{
    version     2.0;
    format      ascii;
    class       volScalarField;
    location    "0.1";
    object      p;
}
// * * * * * * * * * * * * * * * * * * * * * * * * * * * * * * * * * * * * * //

dimensions      [0 2 -2 0 0 0 0];

internalField   nonuniform List<scalar> 
80571
(
100.264655776161
100.264238783119
100.26369825455
100.266588712296
100.271047853228
100.271075767249
100.271472314783
100.272171000629
100.270000481062
100.270055318658
100.270247069384
100.270130321997
100.270240786345
100.270417357628
100.270169796367
100.270024256352
100.272189817624
100.271462407816
100.271063298055
100.27103929363
100.271746514434
100.272292382672
100.270015391733
100.270328717645
100.270588316973
100.269900451197
100.269900425828
100.270588522631
100.270328835272
100.270015724414
100.27229649857
100.271749670254
100.271040711367
100.271063678018
100.27146150863
100.27218606327
100.270025377136
100.27017084013
100.270416198272
100.27024158926
100.270131575227
100.270248153401
100.27005833958
100.270002910785
100.272169888026
100.271471565818
100.271075999037
100.271049514393
100.271759523497
100.272308997769
100.270020299592
100.27033466645
100.270597582247
100.269909736718
100.269910175135
100.270598634106
100.270335341309
100.270020128849
100.272305482022
100.27175661486
100.267003178968
100.26727370273
100.266627178929
100.266333314113
100.266695270842
100.266969424217
100.26696939371
100.266694843254
100.266332057184
100.266626758429
100.26727460028
100.267003273555
100.266589579967
100.266970320723
100.267689229255
100.268087765201
100.268139842828
100.268269062601
100.267893976456
100.268267293088
100.26833043163
100.267923848251
100.268234256128
100.26812940637
100.268092694257
100.267684607815
100.266978370761
100.266582463937
100.266998898485
100.267266681925
100.266619587718
100.266324807074
100.266686489331
100.266961223695
100.266961418235
100.266687068165
100.266325215967
100.266619880567
100.267266911828
100.266999548598
100.266581744385
100.266978212698
100.267684040056
100.268090943504
100.26812839435
100.268231032276
100.26792197211
100.268328231006
100.268265008509
100.267892528746
100.268266228007
100.268138906834
100.26808816126
100.267688602551
100.266969715208
100.264199195929
100.265226068968
100.263546257547
100.264190096914
100.264507822847
100.264251750598
100.26480717002
100.26291366559
100.262887802741
100.26390897523
100.263909149721
100.26288645686
100.262911092486
100.264806241041
100.264254488982
100.264329707275
100.263698982752
100.264198538703
100.265226344203
100.26539279634
100.266631657417
100.266843357889
100.265733074098
100.265634076625
100.26558431273
100.265641053819
100.266762032038
100.26659479187
100.265383794126
100.265221378065
100.264198773226
100.263697472186
100.264322775699
100.26424510836
100.264798598738
100.262904024226
100.262878857784
100.263901536577
100.263901677107
100.262879229464
100.262904721551
100.264799105792
100.264244726726
100.26432356992
100.263696666783
100.264199392711
100.265220593676
100.265384646382
100.266594092473
100.266754704477
100.265636282096
100.265581873773
100.265631837206
100.265727393421
100.266835344574
100.266630826883
100.265395984677
100.263536060574
100.255478070809
100.255808917742
100.255861542163
100.256054806394
100.256319584795
100.265206941837
100.263883264511
100.264050604795
100.264049929344
100.263880773226
100.265208329701
100.264508437931
100.26418443001
100.264238003639
100.263547434469
100.263529899324
100.263651181684
100.268039214803
100.265296668345
100.265226654058
100.267952622404
100.263645428427
100.263531101952
100.263561101751
100.264162609136
100.264235006512
100.264653792374
100.265499237298
100.266240837401
100.266110951521
100.266648845721
100.268892224836
100.268923435475
100.267512379353
100.266119666588
100.265132391134
100.264520005222
100.264235145783
100.264235150725
100.264519991344
100.265132277966
100.266119370527
100.267511897882
100.269360709812
100.26958648335
100.268079344688
100.266429695931
100.265215802808
100.264375595746
100.263872210184
100.263623920737
100.263623922645
100.263872226857
100.264375682146
100.265216023975
100.266430187839
100.268080156306
100.26958618116
100.269361410927
100.267418012139
100.267724138896
100.267542255359
100.267081518852
100.266854934951
100.266283133403
100.267063721795
100.266797456377
100.265289853791
100.262224725286
100.256902967386
100.25548649294
100.25580840108
100.255875167241
100.256066846521
100.256324319647
100.256324335792
100.256066816359
100.255874780136
100.255808667716
100.255487005229
100.255554784956
100.255542410677
100.254371991517
100.254236053361
100.254310082184
100.254171024514
100.254240010272
100.254301582341
100.254301539935
100.256319941067
100.256054766143
100.255861633423
100.255808701769
100.255477307559
100.255539798714
100.255552529306
100.25437306937
100.254234466394
100.254307056004
100.25418518216
100.2542500113
100.254308134416
100.254308180268
100.254250215746
100.254184480205
100.254307410526
100.254233492899
100.254373565037
100.254817529103
100.25482069169
100.254699916769
100.254740612725
100.254619538616
100.254659155745
100.254655766977
100.254655740746
100.254658551689
100.254239762533
100.254171715125
100.254309690474
100.254236913438
100.254371368724
100.254819968098
100.254816971965
100.254698283346
100.254741195666
100.254625626587
100.254663183293
100.25466145386
100.254661484745
100.254663562441
100.2546254307
100.254741923101
100.254698182543
100.254448214611
100.254494477202
100.254493981886
100.254448386385
100.25451963275
100.254459517291
100.254476916056
100.254463981482
100.254463788946
100.2544760954
100.25445926152
100.254619650598
100.254739699338
100.254699892893
100.254447167366
100.254492537638
100.254493224752
100.254447463707
100.254519032833
100.254461620896
100.254477985854
100.254466281594
100.254466453715
100.254478508803
100.254461431202
100.254520413565
100.253502328048
100.253435505862
100.253473049821
100.253471274129
100.253432075014
100.2535026244
100.253470685679
100.253484857736
100.253494031993
100.253493722307
100.2534838268
100.253469780747
100.253500059999
100.25451805594
100.254686970018
100.253620149033
100.253429985191
100.253468794138
100.25347071189
100.253434622175
100.253499139374
100.253470681299
100.253486338063
100.253496193917
100.25349636263
100.25348704609
100.253470909194
100.252249758063
100.252277377754
100.252222990129
100.252277975093
100.252276697571
100.252220783654
100.252274611383
100.252248678624
100.252254256178
100.252284279393
100.252283831555
100.252252064971
100.252247106389
100.252269902898
100.25221867231
100.252272590086
100.252273478583
100.25222032966
100.252272853233
100.252249199556
100.252255171791
100.252287182795
100.252287225136
100.252257192683
100.250931776101
100.250964782165
100.250987389034
100.250916619298
100.251001451264
100.250999472623
100.250915359965
100.250984272249
100.250961668813
100.25092750356
100.250990487003
100.250990007827
100.250923584031
100.250958856254
100.250978802573
100.250911052996
100.250992059064
100.250993009275
100.250910688841
100.250982569698
100.250960909009
100.250926551565
100.250994634238
100.250993552293
100.249402794549
100.249238827584
100.249362052732
100.249377842483
100.249237706106
100.249414856164
100.249409439854
100.249232762812
100.24937476205
100.249357906696
100.249235239417
100.24940035904
100.249400545018
100.249229201126
100.249351625306
100.249368244513
100.249225719354
100.249397178174
100.249399501336
100.249224667937
100.249369795158
100.249351959271
100.249229065017
100.249409796381
100.247113506922
100.247110771516
100.246661632833
100.2469672644
100.246978374181
100.246679246515
100.247112671377
100.247100713207
100.246663193951
100.246972544972
100.24696581399
100.246658771316
100.247110693283
100.247108274239
100.246647830001
100.246952905117
100.246964242382
100.246651749471
100.247084173962
100.247087790014
100.246651369254
100.246966787093
100.246958256951
100.246652774724
100.241756678768
100.243035872437
100.243033337545
100.241764366483
100.242583221844
100.242578060995
100.241802077902
100.243047395471
100.243015245156
100.241757054392
100.242571639109
100.242578720097
100.241770037958
100.243040347764
100.243033757381
100.241748060177
100.242560701062
100.24255966513
100.241739373182
100.242992828322
100.242997754681
100.24173858177
100.242564050971
100.242568142821
100.235994313308
100.234162980224
100.237052273309
100.237056532369
100.234174357354
100.236007565491
100.235987581309
100.234322246868
100.237150086021
100.237039973839
100.234140380182
100.23598740923
100.236008744227
100.234196660303
100.237076797077
100.237052300036
100.234142437638
100.235988724059
100.235978478744
100.234120392073
100.237014657091
100.237028953431
100.234144961947
100.235977928684
100.244902660903
100.245011936449
100.243183748933
100.245699921292
100.245769031837
100.243560147341
100.244940643967
100.24485017475
100.243279210824
100.245563884386
100.245693929344
100.243203213329
100.244955258321
100.244972101328
100.243616135765
100.245779210127
100.245678428846
100.243157585271
100.245026698185
100.24496043414
100.243234146644
100.24571632148
100.245772861982
100.243511746387
100.280217251277
100.275038079066
100.275443173822
100.280654889331
100.276478079774
100.276532115263
100.280770256095
100.275523763082
100.275074873164
100.280270966166
100.276271960979
100.276260765035
100.280251461267
100.275083773586
100.275502273528
100.280728694288
100.276488031627
100.276460035265
100.280656111174
100.275455134696
100.275039784034
100.280205082886
100.276250125
100.276258654344
100.314172885771
100.331060900003
100.319893150572
100.330349514926
100.313088982048
100.329885394772
100.319675756789
100.331511486327
100.314098795565
100.314197747882
100.331659290049
100.319836968542
100.330012414071
100.330548456475
100.320142099445
100.331287653642
100.347802631693
100.347801887728
100.33118419617
100.314267517721
100.314348691295
100.361289678915
100.390508907068
100.377635991037
100.377637423901
100.386622945507
100.376294234337
100.363990995435
100.319993046314
100.330469284109
100.329957495203
100.313163131383
100.367904040435
100.388780879491
100.369357137979
100.369478738327
100.376321835439
100.386107134542
100.363211536919
100.319717331981
100.331539077191
100.348184604877
100.314102447523
100.314088493671
100.33151913826
100.31967222923
100.329856676773
100.313079376339
100.330328783675
100.319875248225
100.331057292611
100.314164192894
100.34776546468
100.347745673703
100.377642434663
100.386415456852
100.363807609817
100.376086044186
100.369187413321
100.369425408465
100.376264761606
100.363210323508
100.386074745566
100.376818921134
100.376864690811
100.386122121669
100.376357739787
100.369539930955
100.369389727693
100.376299980971
100.386626889185
100.403869750804
100.406636861045
100.412038514011
100.412034414271
100.406622428861
100.398585075719
100.398589381275
100.413342571421
100.419357177704
100.418178991884
100.418183589315
100.417744384803
100.41644275237
100.414487177819
100.403859726875
100.407387635067
100.406810724429
100.396346632019
100.415981358131
100.417672543952
100.416432181633
100.415127043093
100.41514784125
100.416493398143
100.40729547262
100.396242219707
100.406776814411
100.415875477139
100.417689305108
100.420701384882
100.4213665835
100.421291600073
100.42092313518
100.418785458355
100.415068607684
100.410511547687
100.406897587944
100.406183559657
100.40971100731
100.417467352967
100.42719746323
100.435618578363
100.440900691821
100.443500826111
100.44461351598
100.445067714396
100.445327753713
100.445400120377
100.445696312092
100.445034243494
100.450904487596
100.435237350842
100.39516288931
100.356305254404
100.314200548803
100.291532517818
100.305788784316
100.306387062078
100.304246880786
100.304032155286
100.305138929231
100.306273241631
100.307182530071
100.307976658871
100.308651670429
100.309119601149
100.309384231039
100.309517508961
100.309573251078
100.309136096854
100.308606746114
100.308008309598
100.307371923409
100.306732023533
100.306126587599
100.305594948209
100.30515827934
100.304817484267
100.304553833749
100.304343251802
100.304167772336
100.304012433266
100.303857073712
100.303687213163
100.303488729069
100.303250200117
100.302960245549
100.30264188264
100.302328289155
100.302258311772
100.302628944243
100.303206750106
100.303415675857
100.303478845613
100.303509209853
100.303583704673
100.303587017091
100.303667746107
100.303678034308
100.303712008816
100.303688839198
100.303541009491
100.303332009831
100.303349485691
100.303380619814
100.303575278637
100.303574088247
100.3035475695
100.303674156187
100.303696965052
100.303687523888
100.303613227262
100.303640698343
100.303653733037
100.303525988778
100.303557153736
100.303563221768
100.303471010628
100.303431434229
100.303223845941
100.302755114427
100.303273463971
100.303441761998
100.30347426065
100.303558086643
100.303539160379
100.303654093517
100.303626940358
100.30368678984
100.303693761442
100.303671455626
100.303659619638
100.303580681622
100.303616993796
100.303705671519
100.303696381564
100.303721715937
100.303692791014
100.30368540577
100.303635584986
100.303655475666
100.303548539072
100.303560529312
100.303482470604
100.303449357173
100.303294717859
100.302904485667
100.303362579874
100.303457408636
100.303493738138
100.303564682774
100.303565220136
100.303661548274
100.303648880953
100.303704584248
100.30368168072
100.303689619307
100.303754619184
100.303738729402
100.303648216668
100.303408420195
100.303109238246
100.303421249772
100.303479799077
100.303662938403
100.303789200952
100.303787993757
100.303668317021
100.303768730766
100.303768931669
100.303691447533
100.30367327879
100.303663623329
100.303582686389
100.303573243087
100.303511374284
100.303474832811
100.303391981081
100.3032821918
100.302911718413
100.302548471215
100.303057229637
100.303319036069
100.303418374312
100.303494204889
100.30352435255
100.303591635956
100.303600317787
100.303652195415
100.303675788626
100.303663234988
100.303728736536
100.303806890418
100.303830234147
100.303868936003
100.303798950292
100.303832409873
100.303835542313
100.303852836638
100.303787433079
100.303710339032
100.303706783375
100.303615432713
100.303579434604
100.303578887241
100.303592973563
100.303509000184
100.303450805044
100.303363003557
100.303089289631
100.302725735018
100.303193699266
100.303408777404
100.303481863137
100.303528736185
100.303607022421
100.303627059845
100.303646176757
100.303730414269
100.303779813973
100.303869422519
100.303866251772
100.303782783625
100.303559462886
100.303236818035
100.303497386899
100.303554664575
100.303641398945
100.303773405351
100.303788973274
100.303741977875
100.303833937911
100.303841364029
100.303773384614
100.303749650898
100.303673088646
100.303658021284
100.303589176982
100.303562305541
100.30351545335
100.303453564957
100.303246123008
100.302937538298
100.303359135755
100.303489029337
100.303550436964
100.303578534967
100.303666339316
100.30365002946
100.303756688172
100.303737557098
100.303799469389
100.303842577424
100.303838967739
100.303870152711
100.303797776738
100.303858021746
100.303862246665
100.303869897396
100.303832872056
100.303765282624
100.303769896483
100.303679641763
100.303675451847
100.303606910364
100.303570537366
100.303531616301
100.303432568327
100.303338739731
100.303017080189
100.302862865947
100.303218690025
100.303406268608
100.303492353137
100.303545385969
100.303610263258
100.303642436
100.303708878347
100.303717284297
100.303796062705
100.303829809357
100.303911822885
100.303907560394
100.303816329721
100.303629252029
100.303723297849
100.303824707375
100.303863242063
100.303910108026
100.303915789167
100.303862943692
100.303789606763
100.303773464803
100.303804582845
100.303719166074
100.303702164048
100.303726430528
100.303645547825
100.303596301984
100.303525245016
100.3034731875
100.303256418735
100.303067247028
100.303392508542
100.303481372383
100.303580267882
100.303651284833
100.303684758164
100.303762682649
100.303767603001
100.303844715187
100.303894782795
100.303877938055
100.303962092437
100.303938497741
100.303886682191
100.303902293066
100.303924949759
100.303945813964
100.30392136912
100.303862245182
100.303681825428
100.303815185792
100.303854606849
100.3039019161
100.303926753512
100.303947859039
100.303928092071
100.303892822805
100.303836470806
100.303819010533
100.303857495739
100.303756870849
100.303748104488
100.303781626425
100.3036841775
100.30363737033
100.303555753338
100.303478366441
100.303393376522
100.303144056192
100.303098932619
100.303346024058
100.30339365518
100.303560729304
100.303625923741
100.303690776644
100.303723898863
100.303797071392
100.303788343188
100.303880327436
100.303861417418
100.303895426219
100.303913105041
100.303948685717
100.303913223459
100.303848432366
100.30368186536
100.303817181121
100.303876798622
100.303932522107
100.303947404346
100.303964158953
100.303944287509
100.303894649676
100.303881535105
100.303897908198
100.303828669148
100.303831383387
100.303765246871
100.30374084039
100.303686301788
100.303626834649
100.303535302939
100.303275452127
100.303223476591
100.303143958153
100.303100421731
100.302994152263
100.302877981386
100.30280591976
100.30274038074
100.302594364408
100.302476464771
100.302411978055
100.302443560304
100.302321827841
100.302354542361
100.30264656086
100.302962509256
100.303251031969
100.303489853199
100.303687635782
100.303855660745
100.304008036708
100.304158157319
100.304324441792
100.304522067384
100.304767519381
100.305081384418
100.305481285156
100.305969776072
100.306529908937
100.307129115711
100.307732217042
100.308305919489
100.308817816272
100.309242757445
100.309572403463
100.309911254329
100.310145974958
100.309802813542
100.309357599993
100.308816572471
100.308201051768
100.307541224584
100.30687299898
100.306236403651
100.30567531944
100.305213351527
100.304853802994
100.304577041722
100.304357210128
100.304175076916
100.304015469172
100.303858423352
100.303687562711
100.303488991469
100.30325112424
100.302961594824
100.302643071923
100.302317371102
100.302228764196
100.302538489957
100.303126953309
100.303374544623
100.303446636348
100.303494503834
100.303568805609
100.303586818691
100.303667351031
100.303696320317
100.303762036119
100.303741981347
100.303577593913
100.30331627914
100.303337094076
100.302940790652
100.302395338183
100.301428625077
100.301590315331
100.30179059562
100.30239398454
100.30254106846
100.30242850607
100.302942778306
100.302998968179
100.303028544668
100.302585896743
100.302800844258
100.302889997881
100.302264394464
100.301552077619
100.301949516612
100.30217867288
100.302448186689
100.302901649528
100.30300606266
100.302846074532
100.30256789146
100.302313961398
100.302753764594
100.303141435108
100.303222490226
100.303479630597
100.303545936111
100.303561172647
100.303533515225
100.303515082213
100.303500926562
100.303491287961
100.303485668747
100.303478822555
100.303464680177
100.303459577338
100.303506972838
100.30357310281
100.30358993209
100.303666412889
100.303690273493
100.303734384039
100.303710713293
100.30355788213
100.303510232997
100.303630952104
100.303701626027
100.303661872397
100.30363216987
100.303621333564
100.303616222645
100.303582430018
100.303668835483
100.303697531035
100.303776888779
100.303759897968
100.303642705432
100.303321006585
100.302943126452
100.303235542407
100.302880686346
100.30238131951
100.301356465409
100.300004433192
100.298628607835
100.296698313189
100.298105782511
100.298803527625
100.299178044888
100.299653615736
100.299987847548
100.30029760612
100.301153042186
100.301459868499
100.301220365157
100.300767023799
100.300374042503
100.300042025119
100.299535980201
100.300807625644
100.301382352325
100.302323202776
100.302728114616
100.303220053395
100.303461462596
100.303472508639
100.303468276228
100.303452267516
100.303441940497
100.303435197794
100.303484961862
100.30356349914
100.303561728641
100.303581509969
100.303671246845
100.303700192246
100.303790267892
100.303758167115
100.303665463887
100.303367440981
100.302933740158
100.302211989203
100.301324905237
100.301302449641
100.29999019584
100.298532468076
100.296348426411
100.293783992153
100.290625770586
100.291626166934
100.292990868346
100.294095273925
100.295036531061
100.296555507654
100.29680612769
100.296129481667
100.29554378072
100.294445900328
100.293688387602
100.295814273135
100.297140387219
100.297423906359
100.300572874498
100.302422661451
100.302777229381
100.303053453884
100.303088222939
100.30335994706
100.303348759838
100.303427863699
100.303480008852
100.303476392595
100.303559527117
100.303579942272
100.303671954413
100.303700954416
100.303796104917
100.303759977976
100.303672430337
100.303354711684
100.302929484355
100.302169248935
100.30127164763
100.299909570973
100.29843884934
100.295979744869
100.296149049531
100.293440770281
100.289908457757
100.285704952324
100.280452820358
100.259718171921
100.270189375264
100.28090539784
100.282347133604
100.286773237171
100.288116837581
100.283055965592
100.286869402688
100.289527168694
100.291490510195
100.293306999888
100.294491912711
100.29566713974
100.295759050814
100.294721638334
100.293139370748
100.291647261647
100.29010655822
100.28963423054
100.292202114021
100.294314797729
100.295087596198
100.297933910407
100.30085045499
100.302679174156
100.302913823047
100.303155489965
100.303156265087
100.303395464418
100.303373068088
100.303348717078
100.303334856394
100.303325076984
100.303318676076
100.303342826284
100.303423147725
100.30342296562
100.303476117269
100.303559697334
100.303580448553
100.303672276666
100.303700705474
100.303796771301
100.303757634988
100.303682476236
100.303336440603
100.302949338721
100.302139507436
100.301262346057
100.299898102472
100.298408832783
100.295941323875
100.293119423898
100.289460697939
100.289424012845
100.284767438977
100.279334045112
100.253725885848
100.224934108809
100.1632274276
100.182158565944
100.188172408439
100.192187228511
100.192062563285
100.199288665657
100.19671625142
100.193097788768
100.197002937628
100.202113655142
100.20051769664
100.196662268754
100.20565958239
100.201107027286
100.201653184617
100.208751453139
100.202458933358
100.201475873191
100.20909768413
100.204576555997
100.198304190779
100.207083588339
100.203789389461
100.197112123337
100.2054853773
100.202494120703
100.195620508548
100.204554504476
100.205886414436
100.203532610367
100.203259086035
100.201674466114
100.200216910766
100.199788277247
100.199976010326
100.199916936737
100.20027373781
100.200589921478
100.200564079307
100.200202514248
100.200498982583
100.200687985669
100.200757970397
100.200481555705
100.200262225159
100.200743458639
100.200496454521
100.200362561922
100.200160021514
100.200537044736
100.200542954302
100.199778346759
100.199788130316
100.200489903397
100.200505928218
100.200113883432
100.200380440634
100.200499611844
100.200750364941
100.200260154881
100.200482533771
100.200758207149
100.200688866844
100.200500604851
100.200204644786
100.200565893924
100.200592843092
100.200276586018
100.199918943114
100.199974665802
100.199786389802
100.200218460431
100.201077042541
100.20186679648
100.201881372094
100.201072162886
100.201714925224
100.202353864696
100.202363613705
100.201733070138
100.201682273951
100.201739428497
100.201386008611
100.201824402693
100.201969336152
100.200857810575
100.201391717276
100.201143521411
100.201382588267
100.201748477376
100.200687734808
100.201253540001
100.201867391644
100.202385067202
100.202784914314
100.200416637873
100.201695405809
100.201235417065
100.201086903782
100.20059662685
100.201509822578
100.203735906084
100.201830888226
100.200518718922
100.20175709104
100.201736980374
100.200495488016
100.201494016345
100.200594717992
100.201078448799
100.201241110186
100.201694916053
100.200412290961
100.202787371312
100.20238019458
100.201863281183
100.201251180079
100.200682428484
100.201746650677
100.201381463859
100.201140158219
100.201388819503
100.200850719614
100.201970192503
100.201825961343
100.20138791916
100.201735815635
100.203321963571
100.202992280608
100.203435824449
100.201269617605
100.200287749722
100.203548329258
100.202874108319
100.202288106182
100.202818476087
100.202317319353
100.203027997982
100.200069117638
100.205300841207
100.204736102897
100.205014223653
100.202188694641
100.201344388371
100.201338241676
100.202181157976
100.203255651085
100.203329477623
100.202998080895
100.202819345017
100.202290657719
100.202872333192
100.203178485376
100.201273495264
100.202040850489
100.202935402873
100.203998707325
100.20259784995
100.202967803282
100.203444626541
100.204432778593
100.201937841232
100.201502747461
100.20225519389
100.202377207257
100.202271258298
100.201696672664
100.202218346294
100.20276378966
100.202756430987
100.202204878793
100.201676125945
100.202367816261
100.202253507599
100.201929625125
100.204445050837
100.203446517626
100.202961982329
100.202588225326
100.204004673234
100.202951235308
100.202048692971
100.201273663609
100.203191237817
100.202710239185
100.201447210443
100.200846864964
100.201561695878
100.202502509294
100.201105252467
100.201070893299
100.203489288053
100.203429930516
100.202553160405
100.202953292141
100.203885181568
100.202313736396
100.202167552183
100.204743100818
100.205241102704
100.204490828377
100.203847774784
100.204662039522
100.201567904
100.202659981698
100.205067049627
100.20401580176
100.20647135711
100.204963073974
100.205690682329
100.204082481937
100.200630752602
100.202368523558
100.201637175951
100.197860295318
100.190710152562
100.193154573793
100.187513388935
100.191426217705
100.180049049625
100.175181510017
100.177495603148
100.180522821423
100.159219187387
100.234835705892
100.257913783504
100.223054682305
100.250666315751
100.270196240443
100.278426273037
100.284183465821
100.283865786153
100.278966619084
100.271831206966
100.279280328135
100.283643744582
100.286666612346
100.28903484494
100.287311691516
100.290862117059
100.292662631466
100.294239045485
100.295140082793
100.294920545832
100.29321836812
100.291581012183
100.291250012717
100.292688052225
100.293761959202
100.292301209539
100.292617159372
100.291041822196
100.291815252752
100.290272304008
100.288952300768
100.28858161703
100.288736896057
100.290180513139
100.287801269145
100.288808541416
100.288791481356
100.291844063716
100.290556185384
100.291814344359
100.292891333606
100.294455118773
100.295456698635
100.297040534137
100.296982655972
100.296568750662
100.295904580616
100.294998523196
100.293279450576
100.292657736428
100.291080079665
100.29194509268
100.291041081803
100.290335060345
100.291165959167
100.290190374366
100.290535414092
100.289250020999
100.297061796408
100.29624544292
100.296342667619
100.295772951863
100.297148814395
100.296892636941
100.298841005686
100.29981918223
100.298876334925
100.298969845732
100.299593401846
100.296295740427
100.297214321211
100.29727415476
100.298998505113
100.298548712632
100.29959186832
100.29872889693
100.298959475738
100.29865757133
100.298273543277
100.298607786021
100.298729269598
100.298370008625
100.298138277819
100.297557450162
100.29653367448
100.29503773764
100.294707437857
100.296236193578
100.294796613191
100.293339209487
100.294273020901
100.292106346766
100.289823913507
100.289371842945
100.290808998037
100.29431297439
100.294287553217
100.293085358259
100.292496992527
100.291898354786
100.297996235839
100.300068465297
100.299672259448
100.299275996981
100.299087652287
100.299226952716
100.3011439709
100.301142101442
100.301386022641
100.301080983652
100.300502333769
100.300972163731
100.300337171608
100.300912251325
100.300737817011
100.301094768359
100.301128009155
100.301366975421
100.301310236222
100.299952210738
100.300360414167
100.300093557024
100.299204793011
100.299940325673
100.30006544337
100.300240495176
100.300061703315
100.299719797055
100.298697103677
100.300193099137
100.301162966606
100.30276581945
100.303164503418
100.303360727159
100.303277836288
100.30307340472
100.302814298918
100.302557358779
100.302437305528
100.302321419853
100.302089183591
100.302021515525
100.30203152299
100.302031210869
100.30206728782
100.302107197464
100.302323827836
100.302225162808
100.302512366271
100.30307416535
100.303057725361
100.303057640887
100.303342767905
100.303348361139
100.303427468441
100.303479671132
100.303561804475
100.30358187527
100.303671604209
100.303700010023
100.303791523468
100.303754385268
100.303679257886
100.30335093877
100.302960631344
100.302183870707
100.30130463423
100.299918520744
100.298441983408
100.296091936675
100.293398877639
100.289960385902
100.285811743741
100.280693790433
100.260011608982
100.253992931481
100.22513988936
100.162690591294
100.181927623517
100.188023210803
100.192108477181
100.192010995931
100.1990835928
100.200454133016
100.196646656142
100.205712108994
100.201084396458
100.201653610358
100.208691466648
100.202433421862
100.201479603635
100.209086065345
100.204570628232
100.1983207873
100.207051515956
100.203789920227
100.197110998055
100.205474214327
100.202500477485
100.195619929585
100.205291919215
100.20472153
100.205051153194
100.204943621329
100.203548929783
100.205902452135
100.201260570608
100.203440666031
100.202001739837
100.203546251462
100.200287706298
100.20145301535
100.2027059266
100.203046778724
100.203563843263
100.203193853516
100.202316244879
100.201849565258
100.201646506939
100.204781503562