/*--------------------------------*- C++ -*----------------------------------*\
| =========                 |                                                 |
| \\      /  F ield         | OpenFOAM: The Open Source CFD Toolbox           |
|  \\    /   O peration     | Version:  v1612+                                |
|   \\  /    A nd           | Web:      www.OpenFOAM.com                      |
|    \\/     M anipulation  |                                                 |
\*---------------------------------------------------------------------------*/
FoamFile
{
    version     2.0;
    format      ascii;
    class       volScalarField;
    location    "0.8";
    object      p;
}
// * * * * * * * * * * * * * * * * * * * * * * * * * * * * * * * * * * * * * //

dimensions      [0 2 -2 0 0 0 0];

internalField   nonuniform List<scalar> 
80571
(
100.259903469538
100.259486442371
100.258945868709
100.261836372476
100.266295554321
100.266323449809
100.266719939193
100.267418774136
100.265248188684
100.26530300126
100.26549474828
100.265377989562
100.265488444304
100.265665004906
100.265417361965
100.265271630966
100.267435967608
100.266710122871
100.26631103281
100.266286992744
100.266994245503
100.267540255917
100.265263139116
100.265576520268
100.265836178843
100.265148345674
100.265148349587
100.26583648978
100.265576801575
100.265263692484
100.267544656726
100.26699773838
100.26628879763
100.266311827113
100.266709697856
100.267434411276
100.265273535878
100.265419054573
100.265664445036
100.265489839618
100.265379828607
100.265496411873
100.265306593973
100.265251197085
100.267418151269
100.266719633906
100.266324113401
100.266297590086
100.267007584312
100.267557151991
100.265268261381
100.265582627476
100.265845544615
100.265157657049
100.26515806402
100.265846491836
100.2655831402
100.26526787227
100.267553354985
100.267004342838
100.262250889714
100.262521380934
100.26187494558
100.261581092033
100.261943056879
100.262217279794
100.262217287196
100.261942738166
100.261579995786
100.261874751905
100.262522567407
100.262251330147
100.261837636149
100.262218425316
100.262937372113
100.26333587664
100.263388030448
100.263517265918
100.263142178929
100.263515525264
100.263578666441
100.263172036541
100.263482460063
100.263377621553
100.263340694385
100.262932718442
100.26222646743
100.261830521331
100.262246961367
100.262514655342
100.261867587064
100.261572750579
100.261934389277
100.262209122197
100.262209276097
100.261934857906
100.261572997266
100.261867650949
100.262514592246
100.262247263366
100.261829409428
100.262225829405
100.262931800736
100.263340425647
100.26337615918
100.263478640498
100.26316955276
100.263575867486
100.263512639901
100.263140138551
100.263513859441
100.263386536873
100.263335736792
100.262936245498
100.26221737674
100.259446821326
100.260473716878
100.258793951818
100.259437897941
100.259755657621
100.259499453154
100.26005494102
100.258161410995
100.258135594079
100.25915681547
100.259157033114
100.25813436177
100.25815900018
100.260054240307
100.259502480656
100.259577744341
100.258947014878
100.259446634086
100.260474540368
100.260640987792
100.261879872005
100.262091598866
100.260981289824
100.260882294371
100.260832532119
100.260889271544
100.262010287315
100.261843045299
100.260631967582
100.260469562035
100.259446853254
100.258945500892
100.259570815158
100.259493105414
100.260046604156
100.258151936719
100.258126766966
100.259149424289
100.2591495209
100.258127024664
100.258152470979
100.260046881598
100.259492427849
100.259571240613
100.258944284237
100.259447121214
100.260468687124
100.260632827093
100.261841895617
100.262002433428
100.26088391337
100.260829471433
100.260879423818
100.260974986988
100.262082961613
100.261878435849
100.26064359113
100.258783718584
100.250725398429
100.251056294938
100.25110893155
100.25130227096
100.251567162333
100.26045491065
100.25913113215
100.259298443891
100.259297818336
100.259128770618
100.260456448228
100.259756623729
100.259432763385
100.259486144814
100.258795832588
100.258778348893
100.25889970404
100.263287531698
100.260544898025
100.260474885255
100.263200942008
100.258893951979
100.25877951815
100.258809484296
100.25941095395
100.259483135999
100.25990193762
100.260747368116
100.26148897472
100.261359051487
100.261896903516
100.264140291738
100.264171530913
100.262760519617
100.261367773198
100.260380448819
100.259768008608
100.25948309093
100.259483036481
100.259767823566
100.26038007241
100.261367160808
100.262759827266
100.264609448821
100.264834304384
100.263327207472
100.261677597062
100.26046359335
100.259623394281
100.259120047996
100.258871815184
100.258871875105
100.2591202427
100.259623755798
100.260464149321
100.261678359589
100.263328340709
100.264834379989
100.264609587304
100.26266626527
100.262972418505
100.262790473939
100.262329693774
100.26210320126
100.261531340199
100.26231198808
100.262045671376
100.260538068616
100.257473045625
100.252151452691
100.250735015415
100.251056833674
100.251123347927
100.251314822442
100.251572093372
100.251571930304
100.251314300424
100.251122183453
100.251056020326
100.250734262342
100.25080216564
100.250789733225
100.249619193405
100.249483259192
100.24955732494
100.249418289738
100.249487358335
100.249549068554
100.249549267378
100.251567693993
100.251302720992
100.251109792053
100.251057144482
100.25072584225
100.250788389232
100.250801135638
100.249622053482
100.249483255385
100.249555683477
100.249433505524
100.249498088531
100.249555881286
100.249555675117
100.249497566098
100.249431746147
100.249554673197
100.249480676449
100.249620825635
100.250064549426
100.250067673009
100.24994684983
100.249987509326
100.249866459465
100.249906127798
100.249903053954
100.249903308146
100.249906675302
100.249487837318
100.249420029717
100.249558337645
100.249485711715
100.249620339225
100.250069752211
100.250066756673
100.249947831475
100.249990375874
100.249874192618
100.249911329437
100.249909066077
100.249908787361
100.2499105746
100.249872358597
100.249988823769
100.249945074038
100.249694709776
100.249741130507
100.249740627848
100.249694956432
100.249766062642
100.24970591726
100.249723336589
100.249710706288
100.249711133067
100.249724214412
100.24970814752
100.249868183554
100.249988934831
100.249949449781
100.249697705681
100.249743487438
100.24974415806
100.24969794651
100.249768908267
100.249710487578
100.249726160877
100.249713660282
100.249713211338
100.24972494583
100.249707803811
100.249766798716
100.248747850786
100.248681418483
100.248719281261
100.248717535743
100.248678125388
100.248748299936
100.248716042763
100.248730086699
100.248739608657
100.248740371501
100.248731612221
100.248719204418
100.248751305581
100.249768033029
100.249936873094
100.248871287373
100.248682158044
100.248721805977
100.248723672592
100.248686577394
100.248750328139
100.248719935003
100.248734298693
100.248742874527
100.248741994761
100.248732309733
100.248716222905
100.247493384681
100.247521613928
100.24746812583
100.247523884201
100.247522720536
100.247466145064
100.247519249683
100.247492349555
100.247497237474
100.247527542697
100.247528804129
100.247499637924
100.247497191285
100.247523202679
100.247473691155
100.247529344086
100.247530140186
100.247475162733
100.247525926482
100.247499213586
100.247502691605
100.247532008159
100.247530623667
100.247500218034
100.246170564913
100.246205701012
100.246229589184
100.246160945946
100.246247536105
100.246245881212
100.246160274275
100.246227171909
100.246202625929
100.246166227001
100.246228889387
100.246231838308
100.246169506608
100.246210343533
100.2462351364
100.246171237511
100.246255567189
100.24625622554
100.246170225168
100.246238577119
100.246212092475
100.246172558678
100.246235454522
100.246232646099
100.244634439375
100.244470639289
100.24459779869
100.244616848133
100.244481538178
100.244662364468
100.244657701593
100.244477950185
100.244614795164
100.244593809792
100.244467252484
100.244627973444
100.244639951235
100.244470553398
100.244605149921
100.244629414876
100.244494609244
100.244672051168
100.244673634686
100.244491879887
100.244630025635
100.244604506149
100.244472844171
100.244641550784
100.242338275227
100.242330115007
100.241881185307
100.242195019329
100.24221315658
100.241923892093
100.242364093626
100.242353766512
100.241911056512
100.242208631044
100.242191550443
100.24187735494
100.242327556642
100.242331776113
100.241884316003
100.242206398345
100.24223267439
100.241936510219
100.242377019405
100.242379225484
100.241932455064
100.242233270683
100.242210350253
100.241889709112
100.236977498076
100.238239543063
100.238226860864
100.236958019673
100.237798107362
100.237805283152
100.237050249159
100.23830874675
100.238280108813
100.237013128941
100.237803478259
100.23779787536
100.236959232436
100.238227064135
100.238231143174
100.236967753058
100.237816318915
100.237842351705
100.237054865319
100.238320608377
100.238323003253
100.237047134516
100.237839082418
100.237819854767
100.231242919837
100.229352786172
100.232220119315
100.232205738096
100.229315845726
100.231200033885
100.23120129785
100.229582020766
100.232431592231
100.232328450428
100.22941764301
100.231215977858
100.231209150885
100.229325620509
100.232209473301
100.232206647919
100.229328927539
100.231251119831
100.231277807636
100.229488458332
100.232397932441
100.232408758396
100.229504638984
100.231263556075
100.240180610746
100.240238292741
100.238375495161
100.240818239895
100.240843251627
100.238581206445
100.240104654305
100.240041658659
100.238578181427
100.24088224501
100.241025744293
100.238495434971
100.240195698368
100.240155890727
100.238594321687
100.240815352142
100.240769566136
100.238349553755
100.24029090353
100.240285378869
100.238623075699
100.241177506002
100.241238265395
100.238990823397
100.275713023338
100.270351094784
100.270674751329
100.275707826306
100.271505837734
100.271533614325
100.27574290143
100.270635803837
100.270255862071
100.275572911296
100.271632792895
100.27166564219
100.275656100551
100.270318760988
100.270632295392
100.275652623264
100.271422964991
100.271427532033
100.275667629628
100.270713626833
100.270407435429
100.275798016443
100.271835956331
100.271801931438
100.309897422821
100.326747660201
100.315471054193
100.32572675291
100.308349053753
100.324969325726
100.314619410881
100.326396074127
100.30899196315
100.309067727575
100.32649697635
100.314697708482
100.32495273082
100.325720042202
100.315477976401
100.326719079349
100.343401276675
100.343487199731
100.326761405249
100.309819298118
100.309827853087
100.356774128894
100.386015178684
100.373287879612
100.373461926823
100.382573314089
100.371900317568
100.359710038237
100.31551967973
100.325827694886
100.324914402266
100.308342890271
100.363107578926
100.383975402913
100.364752972056
100.364432501671
100.371039018936
100.380407410956
100.357799476971
100.314497815742
100.326252823957
100.342741822025
100.30884636099
100.308861576048
100.326293150589
100.314546351692
100.324965018474
100.308421923866
100.325895731209
100.315637613714
100.326881916716
100.309963628402
100.343716805698
100.343617848761
100.373597245386
100.382195322608
100.359460080046
100.37162484479
100.364549247744
100.364487447337
100.371149985821
100.358014174399
100.380699416334
100.371487608606
100.371530855671
100.38073245636
100.371159324142
100.364457015971
100.364552615547
100.371595699101
100.382112780751
100.399330317393
100.402159460892
100.407710405611
100.407738003623
100.402472702816
100.394438351216
100.39422809069
100.408959380695
100.414907519225
100.413856238291
100.41389862854
100.413281263791
100.4121533144
100.410361148429
100.399849659233
100.403770999676
100.40196942357
100.391956675949
100.411971191028
100.413503203184
100.412542437497
100.41033572273
100.410357961709
100.411004044182
100.401619200586
100.391025476511
100.401992343207
100.41052039485
100.412458226577
100.415718498658
100.416258168768
100.416188023125
100.416807736271
100.417092159864
100.417116486383
100.41714569682
100.417198956472
100.417262256504
100.417316660241
100.417369309941
100.417424974506
100.417489011881
100.417561338248
100.417672056627
100.417910165354
100.418469180697
100.419862468794
100.422678106058
100.42857037454
100.437491723501
100.454175718137
100.446278879562
100.400325076545
100.356673219642
100.310683070212
100.286001888778
100.301083768691
100.30187873914
100.299690335412
100.299449722763
100.300369660726
100.301480601687
100.302661242949
100.304046812171
100.305590320315
100.307075835535
100.308276903268
100.309077901137
100.309438501285
100.308727318741
100.307802027063
100.306682750107
100.305362467407
100.303779108881
100.301977318246
100.300161683847
100.298535207471
100.297239879753
100.29629011331
100.295649666838
100.295224519383
100.294936473201
100.294740158529
100.294613133517
100.294566568782
100.294620720074
100.294886741721
100.295502238035
100.296778136645
100.298770982746
100.300335236027
100.300719375236
100.300817616997
100.300832738563
100.300877674374
100.300862970109
100.300892621047
100.300904811897
100.300867626033
100.300847028455
100.300807661757
100.300721367442
100.300608470589
100.300801998718
100.301023554431
100.301152986174
100.301069457105
100.300861823801
100.300877335517
100.300867835866
100.300854865395
100.300874998844
100.30090986292
100.300883506379
100.30085772964
100.300887582679
100.300837293054
100.300837427485
100.300815667645
100.300684200856
100.300534903106
100.300755271931
100.300822094284
100.300836036549
100.300845483262
100.300848345134
100.300883762485
100.300873301771
100.300854887456
100.300913024632
100.300979874721
100.301124463204
100.301130726352
100.30126419948
100.301312850859
100.301270766635
100.301121689095
100.300965179407
100.300877507261
100.300899161481
100.300893869392
100.300863107829
100.300863166949
100.300854727577
100.300852019363
100.300734484897
100.300737755715
100.300896882406
100.300900047635
100.300888327185
100.300888717448
100.300892503638
100.300917724535
100.300964751446
100.300977150977
100.30097778619
100.300983753419
100.301245629517
100.301450904484
100.30153057918
100.301501440603
100.301369964921
100.301558177974
100.30159190308
100.301708894006
100.301773570331
100.301746446234
100.301626149141
100.30152218824
100.301323381001
100.301024818449
100.301018442634
100.300981461758
100.300944122024
100.300914674146
100.300924140814
100.300937580316
100.300904657734
100.300966464794
100.300739513638
100.300511076457
100.300860753262
100.300966204442
100.300942574406
100.300968826095
100.300995193069
100.300979555468
100.301035605546
100.301025562918
100.301046903127
100.301085227714
100.301114281973
100.301402227164
100.301601420721
100.301679861299
100.301666640499
100.301683705717
100.30151840692
100.301503059894
100.30128358293
100.301207988969
100.301140364132
100.301111048502
100.301046448991
100.300988486647
100.301028269243
100.301047110317
100.300995421221
100.301025647087
100.300842214663
100.300856714239
100.301019177381
100.301084522036
100.301065371368
100.301095178701
100.301083206837
100.301149082434
100.301196076937
100.301251205869
100.301305605544
100.301558575307
100.301755542666
100.301877304301
100.301899543521
100.301765603214
100.30191305823
100.301894583761
100.301954736225
100.302011727559
100.301979136532
100.301920731126
100.301759047882
100.301570987104
100.301335920065
100.301302373405
100.301294968083
100.301229162118
100.301264814798
100.301172525998
100.301135224001
100.301165137958
100.301000171345
100.301127347205
100.301222361736
100.301246761352
100.301201439859
100.301275576308
100.301282812372
100.301308012593
100.30130417623
100.301362338034
100.301388424809
100.301621400711
100.30180608168
100.301913940618
100.301926030149
100.301918336178
100.301727873526
100.301715067508
100.301499495985
100.301423413459
100.301355478705
100.301349780138
100.301321174865
100.301329486275
100.301351485297
100.301307825471
100.301256005958
100.301346519984
100.301063746777
100.301192054816
100.301293582812
100.301367600086
100.301323376233
100.301365367178
100.301391947718
100.301420260722
100.301395143316
100.301456128328
100.301437280675
100.301512180713
100.301805181732
100.302001303481
100.302125498199
100.302110771121
100.302147956783
100.302198421991
100.302172045121
100.302012158668
100.30182146112
100.301593087584
100.301544557723
100.301444344251
100.301453224486
100.301485304285
100.301410852824
100.301439235764
100.301488445227
100.30142760541
100.301481148054
100.301421683879
100.301224288347
100.30144271608
100.301433989204
100.301460331182
100.301523966735
100.301485586892
100.301594061108
100.301520197748
100.301608458501
100.301587171316
100.30162231273
100.301735853511
100.301932857411
100.302123202228
100.302125347526
100.302086564139
100.301917956545
100.301967540744
100.302143715344
100.30229209046
100.302209580857
100.302330632093
100.30219929325
100.30221871382
100.302218998461
100.302043150593
100.3018340252
100.301705860501
100.301667310962
100.301589057517
100.301577681148
100.301615467911
100.30155430574
100.301566774527
100.301574524801
100.301559891526
100.301525450883
100.301569428547
100.30157113894
100.301242732479
100.301581997081
100.301487088177
100.301400099421
100.301609030969
100.301565354826
100.301601558187
100.301626507842
100.301597845554
100.301651250133
100.3016412688
100.301752292569
100.301834039266
100.301866243932
100.302101811555
100.30227913673
100.302465890696
100.302394299068
100.302530207235
100.302448722282
100.302458260928
100.302432592241
100.302221662421
100.301989485404
100.301910974524
100.301773609199
100.301747623512
100.301771060771
100.301673011377
100.301724705101
100.301651582627
100.301619672364
100.301668161227
100.301599150013
100.301604832915
100.301643237942
100.301230865487
100.300402002077
100.301237171906
100.300635632803
100.299793684526
100.300740798671
100.300161016033
100.299432202326
100.298582208245
100.299951676869
100.299415266394
100.297700333358
100.296245946738
100.295303460847
100.294792793501
100.294574423472
100.294521136324
100.294583812755
100.294743957943
100.295011664047
100.295417921556
100.296028237709
100.296913145141
100.298113919103
100.299637324098
100.301362406343
100.30310249576
100.304672881475
100.306008508542
100.307147630129
100.308099394411
100.308836446803
100.309396498878
100.309973112846
100.310358039763
100.309844124419
100.30915180657
100.308243102163
100.307123749505
100.305793896035
100.304199866918
100.302380751676
100.300532202299
100.29885029998
100.29748707279
100.296493177085
100.295834742887
100.295402731457
100.295121956627
100.294931176566
100.294796014612
100.294714350939
100.29468211814
100.294761936733
100.295027319319
100.295895565437
100.297819128541
100.299822272002
100.300662202196
100.300825837362
100.300873229535
100.300913101988
100.300939043145
100.300954621267
100.300967031184
100.300930219789
100.300914732136
100.30080249392
100.300628060724
100.300337190446
100.300473996177
100.300245390842
100.299881955396
100.299335386331
100.29972829784
100.300145860524
100.300586235003
100.300484937043
100.300170774564
100.300472347189
100.300716624973
100.300957362166
100.300785057972
100.300996058543
100.301156474788
100.300751996491
100.30023740306
100.300575189663
100.30076760897
100.301043783556
100.301455052849
100.301405999221
100.30123313552
100.30101048496
100.300893291559
100.301015205043
100.301152897403
100.301050381526
100.300917771887
100.300676151844
100.300867847892
100.300849772864
100.30082682659
100.300768305501
100.300747625673
100.300751896382
100.30079136641
100.300829452053
100.300853736731
100.30088678365
100.300897065245
100.300909696931
100.300921323752
100.300885211239
100.300859299327
100.300771143522
100.300641285454
100.300537529346
100.300672557731
100.300826215616
100.30087493708
100.300933413228
100.300997094517
100.301060149835
100.300988156364
100.301029525866
100.300972761357
100.300958414651
100.300847698372
100.300657282089
100.300407103307
100.299994527847
100.300377453135
100.300059198016
100.299666307969
100.299007294496
100.298083888664
100.2971053859
100.295736792186
100.296968000052
100.297457203925
100.298059427469
100.29863203386
100.298957585742
100.29926299124
100.299972369098
100.300088752435
100.299905220154
100.299417498244
100.298878851014
100.298390161579
100.298171820078
100.298739348312
100.299116364607
100.299654376425
100.29997873445
100.300504118887
100.300735277144
100.300904940641
100.300946332766
100.300855929415
100.300894682603
100.300909724987
100.300957037827
100.301000203704
100.301062659144
100.301011522611
100.301061620877
100.300994764933
100.300976194012
100.300850266501
100.300666451608
100.300351829964
100.299959124669
100.299389262867
100.298656772349
100.298759930708
100.297761818313
100.296672860653
100.295033070952
100.292953507187
100.290376406823
100.291553253791
100.292857710277
100.293793620153
100.294644970266
100.296045521627
100.296318454872
100.295691522759
100.29514913669
100.293901266245
100.293337915708
100.294983518541
100.296237354393
100.296691409806
100.298061494292
100.29953249464
100.300290288022
100.300493157749
100.300568873754
100.300849219093
100.300943268606
100.301005623606
100.301030092212
100.301074054962
100.301095447646
100.301024436113
100.30107445748
100.301002345418
100.300984597445
100.300862243344
100.300690471177
100.30039826983
100.300026093112
100.299430003324
100.298701749118
100.297670563102
100.296486215015
100.294424808135
100.294523998696
100.2923132959
100.289144954056
100.285164256309
100.279785999015
100.260116906574
100.271254138916
100.281582215385
100.282717032013
100.286884583957
100.288385210882
100.283790130421
100.287272173914
100.289461524363
100.29112628257
100.292648634255
100.293546808302
100.294771849615
100.294987135281
100.294293949995
100.292892588188
100.291590537652
100.290205227534
100.289900395508
100.292243600921
100.294210208042
100.295180275282
100.297002192322
100.29814696708
100.300064787031
100.300605098996
100.300591450083
100.300661895894
100.300815472917
100.300780244618
100.300792186551
100.300818127213
100.300904727335
100.300936713266
100.300982638181
100.301058961287
100.30106039969
100.301074786711
100.301093926323
100.30102219972
100.301073247376
100.301000612752
100.3009832058
100.300860864838
100.300700315945
100.300391301662
100.300043002713
100.299409751498
100.298706586794
100.297682194507
100.296502654054
100.294447421801
100.292262415119
100.288832281286
100.2887278356
100.284272919057
100.278407375235
100.254285441681
100.226854169756
100.166058558246
100.18405324876
100.190614182204
100.194325343812
100.193929258032
100.199801152717
100.196950858419
100.193274240247
100.197458080494
100.202611923215
100.201032234451
100.197025700645
100.205441018232
100.201068097663
100.201228262148
100.208324468823
100.202251493105
100.201244965863
100.209046808855
100.20468261064
100.198138569644
100.207238073947
100.203927178271
100.196857896152
100.205528267266
100.202478424166
100.194957040929
100.205376572543
100.206823864703
100.204317510674
100.203690514196
100.201772330885
100.200311627484
100.199849549191
100.199978374096
100.199906690873
100.200287637989
100.200598045615
100.200605023713
100.200249530988
100.200481166912
100.200647782923
100.200725554739
100.200513143834
100.200370914481
100.20077103832
100.200467258144
100.200316318634
100.200246735774
100.200496137556
100.200597602467
100.199879243266
100.199890741021
100.200555074467
100.200465801184
100.200210087107
100.200327566571
100.200472156954
100.200777542591
100.200370825748
100.200514554444
100.200725292925
100.200647403583
100.200483234103
100.200253599633
100.200608801225
100.200602909796
100.20029191206
100.19990860545
100.19997466347
100.199850276271
100.200317945928
100.20126398792
100.202268677818
100.202287924233
100.201255180718
100.201722740271
100.202660141425
100.202670873389
100.201740336571
100.201786895374
100.201692714237
100.201300713865
100.20187321913
100.202062869063
100.200732406087
100.201250109508
100.201004388784
100.201170053308
100.201617096419
100.200691856033
100.201338454461
100.201882810418
100.201990455241
100.202584072031
100.200762721242
100.201719344665
100.201099563012
100.201027457421
100.200587923818
100.201170158211
100.202960942673
100.20165747418
100.200341846802
100.201556655153
100.201536623256
100.200319344164
100.201157339356
100.200585004311
100.201021515398
100.201107698047
100.201718664881
100.200753627119
100.202587764668
100.201988549991
100.201878596285
100.201338205597
100.200687468166
100.201613472359
100.201167494515
100.200999603272
100.201245418054
100.2007243444
100.202060120716
100.201872065891
100.201298506095
100.20168165024
100.203614573894
100.20311183858
100.203838118518
100.201394820324
100.200071626065
100.203818604798
100.203073474581
100.202548876436
100.20315404227
100.202078520973
100.202917413757
100.200249819524
100.205870329932
100.205133851587
100.205451940414
100.202004543916
100.201171295149
100.201159222042
100.201993568141
100.203685943887
100.203623435982
100.203118738598
100.203163015411
100.202559107142
100.203076852504
100.202922680627
100.201075924801
100.202030066083
100.203203241501
100.204199780548
100.202389075033
100.202702776428
100.203537607755
100.204517129984
100.202066868026
100.201497071899
100.20202114302
100.202126534443
100.202113064089
100.201570852926
100.201860499045
100.202593291363
100.202584628584
100.201847620398
100.201548125723
100.202111320942
100.202016061392
100.202060758802
100.204527975548
100.203534602449
100.202699456409
100.202380596178
100.204208911211
100.20321871964
100.202039226075
100.201075599003
100.202934099284
100.202195749347
100.200935944146
100.20158028137
100.20154934835
100.202456101613
100.200954945982
100.200729286798
100.202886425023
100.203019888953
100.20316475394
100.203017970984
100.203959333494
100.202247350983
100.202001777197
100.204057305842
100.204861210546
100.204957411571
100.204120613492
100.204908518395
100.201659462813
100.202833769918
100.204632378854
100.203855312942
100.205250588445
100.204764207731
100.205672618085
100.204649959348
100.201881915714
100.202513960056
100.20209220731
100.200176413222
100.194827153233
100.194661252759
100.188958627925
100.192392165462
100.179924771783
100.172573304239
100.174727451178
100.181528886689
100.161476425087
100.235210073807
100.259168889816
100.222286907698
100.251243144334
100.270354539946
100.278206672343
100.283766914186
100.283807540807
100.279235791263
100.272769653326
100.280221267605
100.283844248358
100.286522273037
100.288615815746
100.286610257193
100.289600858173
100.291103436859
100.292509689543
100.293542967881
100.293472835321
100.292008813486
100.290706640379
100.290320832755
100.291854754984
100.293138215378
100.293818462549
100.294694105164
100.293121641221
100.29432880231
100.292714703961
100.292082761287
100.29211672458
100.292462209074
100.29287227307
100.291821165995
100.291449072872
100.29147375571
100.292547038106
100.290826033071
100.293720574199
100.293482987097
100.294079511375
100.295108442049
100.296945323756
100.29626541892
100.295356178959
100.294469394954
100.293486622398
100.292536564403
100.29185283037
100.290866117315
100.293007800136
100.292180388326
100.292164302283
100.293250156413
100.292718212377
100.293117489011
100.292573422926
100.296493307944
100.297055727973
100.297136514472
100.296726784097
100.296186665435
100.296307432424
100.298181005969
100.299877503229
100.298553260278
100.298134641914
100.298593338885
100.294629006149
100.294254586789
100.295547615838
100.297128570183
100.296510913153
100.29896862119
100.297071295368
100.297424534528
100.297914859868
100.297161906035
100.2964867601
100.295688853334
100.295491860759
100.295918433457
100.295070395494
100.293989325118
100.292951158917
100.29211662354
100.292425241826
100.291393487166
100.290441518892
100.291355268075
100.29015775533
100.29051811434
100.291063307264
100.292555662792
100.293823737011
100.29464206868
100.293429635698
100.293327920659
100.292716387242
100.296060674427
100.293116102146
100.293360588484
100.294172301158
100.295487824957
100.297395085761
100.295257536023
100.29685114639
100.297683464319
100.299382716815
100.300078904497
100.30117667159
100.300280367791
100.2997653643
100.29980058225
100.30105269101
100.300741291128
100.299764513482
100.299843216044
100.297668226434
100.299104304248
100.297990884237
100.297110363268
100.29857861715
100.297888097715
100.298268961469
100.297809085899
100.297936454132
100.297678788287
100.29954229167
100.300012222606
100.300924395712
100.301420113824
100.30149948751
100.301586525018
100.301347279352
100.301371991828
100.300807686825
100.300383687347
100.299781233505
100.29905848321
100.29822137239
100.297132041901
100.295943021313
100.294832993676
100.294188883224
100.295453179073
100.297195822997
100.29928836393
100.300552496444
100.300527846448
100.30052920851
100.300985774134
100.300947118135
100.301008518219
100.301030021823
100.301060199358
100.301006373095
100.301058796431
100.300991571018
100.300974474426
100.300846217644
100.300684056255
100.300349874105
100.299997605849
100.299384869997
100.298647111864
100.297602530512
100.296384453275
100.294478871651
100.292305715348
100.289153172378
100.285226581579
100.279951756407
100.260438464636
100.254602360979
100.227256540544
100.165738232191
100.183981677701
100.190642007379
100.194278764187
100.193856400588
100.199538683668
100.200758762715
100.196849573219
100.205405803039
100.201024373671
100.201184201739
100.208218842112
100.202199963814
100.201230150476
100.209014814397
100.204663798046
100.198141681554
100.207189601286
100.203921073768
100.196845727835
100.205516195431
100.2024814282
100.194951946548
100.205859703245
100.205113338823
100.205493799504
100.205510029332
100.204333815348
100.20685054349
100.201393100077
100.203845932639
100.201975218366
100.203819677238
100.200073700773
100.200937803088
100.202194957493
100.203305182786
100.203948374741
100.203129453817
100.202465183805
100.201087478856
100.201496705448