/*--------------------------------*- C++ -*----------------------------------*\
| =========                 |                                                 |
| \\      /  F ield         | OpenFOAM: The Open Source CFD Toolbox           |
|  \\    /   O peration     | Version:  v1612+                                |
|   \\  /    A nd           | Web:      www.OpenFOAM.com                      |
|    \\/     M anipulation  |                                                 |
\*---------------------------------------------------------------------------*/
FoamFile
{
    version     2.0;
    format      ascii;
    class       volScalarField;
    location    "0.1";
    object      p;
}
// * * * * * * * * * * * * * * * * * * * * * * * * * * * * * * * * * * * * * //

dimensions      [0 2 -2 0 0 0 0];

internalField   nonuniform List<scalar> 
79587
(
100.070137237224
100.072081528502
100.068705972603
100.07305306883
100.080094795778
100.080210396223
100.078165863301
100.078690721813
100.07880374529
100.079177955717
100.07946528703
100.079277417962
100.081155777668
100.080843834229
100.083181721294
100.083139545687
100.079821683324
100.075174891005
100.07415702914
100.074154021278
100.075144279993
100.074861190725
100.074079602911
100.075624507979
100.082033976739
100.081932462808
100.076275921951
100.074607447701
100.074580988003
100.073764126887
100.073636996356
100.074705256963
100.074616986453
100.07623209492
100.081695285278
100.081599134848
100.07542451398
100.074039921965
100.07484953116
100.074920460083
100.074017240956
100.074021889159
100.075089281486
100.079653879061
100.082797123057
100.082653461699
100.075754976055
100.075302879765
100.073016553536
100.072307792142
100.072435519904
100.072302881823
100.071710214448
100.070388435446
100.071505635488
100.072823189691
100.072921852906
100.072014904088
100.071049070839
100.069824883485
100.069495310749
100.070085582788
100.070009430386
100.069333806901
100.069835904987
100.071031039956
100.071860808617
100.072946079213
100.073021764966
100.071606520899
100.070528220588
100.07188239655
100.072375488362
100.072480128031
100.072266573062
100.072971689
100.075510218063
100.076232232726
100.073822504716
100.076723866151
100.079638962002
100.080990448958
100.078667907671
100.078477316024
100.07986978148
100.078151056282
100.075789615747
100.071559685584
100.076836882457
100.06560622515
100.054604650402
100.060373775582
100.06147015977
100.072414424543
100.06808506457
100.068714311837
100.071038814044
100.069163532075
100.067681579849
100.067096473078
100.069816667255
100.071633670195
100.067493008309
100.066731006031
100.06892972499
100.065668280907
100.064556687926
100.065787854198
100.06578935247
100.064602396756
100.065678248914
100.068871983163
100.066603563241
100.067038368479
100.0716769097
100.070252382061
100.067383859257
100.06782367814
100.069211569438
100.071031613665
100.068616871613
100.067923862113
100.072673508306
100.072698003141
100.069679149002
100.072791169841
100.079002366917
100.083690884005
100.076634764794
100.076578148712
100.081383628435
100.097326978956
100.067024122043
100.067545283486
100.051854766213
100.024868807988
100.025805609532
100.021631432915
100.021931465408
100.02822039731
100.059639945959
100.070846595974
100.066552161492
100.066292740319
100.072984712416
100.061203751851
100.061899987812
100.061733286794
100.061964584356
100.069720450726
100.065257731451
100.065239942643
100.069657527594
100.061982401421
100.061795459057
100.061931648838
100.061063011715
100.05976523186
100.061767300527
100.059724875736
100.020091143596
100.022509526717
100.023316060658
100.022952190871
100.022348142151
100.022436841519
100.023911206991
100.024525709727
100.028657017148
100.02590627702
100.026895220871
100.030408022665
100.030412799771
100.026941230133
100.025919415598
100.028464911678
100.027967909831
100.021361227869
100.022176704418
100.0287468062
100.02942150245
100.028018505432
100.027670270953
100.028945299473
100.028853423863
100.028038071593
100.028363093514
100.028588116236
100.023581178986
100.024408360166
100.025642562136
100.025598816389
100.024327221042
100.023424196996
100.024327079119
100.023658595612
100.027848993143
100.029190665399
100.029782022381
100.029934612024
100.02931218816
100.029415358599
100.030076043581
100.029960608909
100.029398509827
100.029595160043
100.029746239267
100.02975907478
100.028941418801
100.028605669965
100.028544892743
100.028799161327
100.02834886283
100.028148221697
100.029396252951
100.027666675775
100.027487693422
100.027668177273
100.02749327245
100.027779947772
100.028100190226
100.027981665171
100.027843843381
100.02763527031
100.027812405826
100.027799227011
100.027803803818
100.027688787119
100.029419031843
100.029374548313
100.029652941621
100.029551525497
100.027668598531
100.025354485256
100.025381044572
100.025261294642
100.02534854907
100.025273208885
100.025082752872
100.025102734259
100.025317136071
100.025374194631
100.025282736482
100.025442361912
100.025412437435
100.025488599014
100.025448539875
100.025430044729
100.027662091843
100.027777099618
100.025466698767
100.023561759495
100.023459265574
100.023476995038
100.023386335915
100.023464874506
100.023556519903
100.023646141126
100.023385991074
100.023157055586
100.023341902196
100.023280519202
100.02344028585
100.023435806287
100.023551235555
100.023540513562
100.023538574725
100.021860740943
100.021869378682
100.021753431393
100.021751181166
100.021648285626
100.021635405844
100.021489074305
100.021727688542
100.021592749854
100.021272838428
100.021511460651
100.02144872127
100.021622528377
100.021652374315
100.021810919686
100.021840977007
100.02008101997
100.020117807162
100.020087169806
100.019912054441
100.01986430256
100.019705312799
100.019628215078
100.019317547484
100.018934431874
100.018983582746
100.019312751332
100.019476960307
100.019471245943
100.019675348266
100.019744613776
100.019993883329
100.017834269373
100.018013963968
100.018060605325
100.017952427491
100.017678811055
100.017574471523
100.017301542775
100.01717271573
100.01700798357
100.016120599194
100.01614037268
100.016921838545
100.016958007679
100.017098782381
100.017346852233
100.01747986789
100.014219969293
100.014884688306
100.015241759333
100.015281888834
100.014971502917
100.01441065507
100.014506439532
100.014063313288
100.0135743352
100.013738592415
100.012150682296
100.012112086464
100.013584013629
100.013351357561
100.013916549477
100.014271892702
100.009662873261
100.008643411353
100.010034184331
100.011023309077
100.011041856644
100.01011374605
100.008759995108
100.009867039396
100.009382871737
100.007322732901
100.008701923774
100.00516346762
100.005103187279
100.008582807088
100.007174911582
100.009240774062
99.9979042698456
99.9977282651374
99.9924176884807
99.9949558287523
99.9989444242445
99.9989599105731
99.995215657672
99.9923683375619
99.9979374334893
99.9980010678194
99.9903894547534
99.9945257633419
99.9899160565447
99.9898232371349
99.9943860429825
99.9906687291994
99.9976489175854
100.006180859515
100.004822858129
99.998502677145
100.004741720001
100.006722143329
100.006670181023
100.004734969828
99.9984254402557
100.004769398195
100.006257935877
99.9977271462528
99.9935383097221
100.024690549135
100.046564400106
100.04631327673
100.024424447367
99.9908618278203
99.9912795537057
100.084359139516
100.168300935321
100.104530873602
100.10468755742
100.091218800802
100.079915606396
100.069607426161
100.066940571008
100.062693959631
100.061795576243
100.073959750227
100.066376863543
100.066342698749
100.073890211198
100.061899620497
100.062583399831
100.067375225845
100.069703926212
100.079750021551
100.090661087284
100.182571814013
100.198765560539
100.198829998204
100.182787758805
100.185727596987
100.176479773622
100.201401508661
100.242958060487
100.154117654279
100.155148327131
100.206093721876
100.16987060079
100.194681150716
100.219132836606
100.159589965289
100.159553151333
100.219178400303
100.194708945072
100.169883063922
100.206013790163
100.154535910354
100.153445842094
100.201172596698
100.17671657734
100.185352851001
100.273782903887
100.318242919582
100.286891873666
100.286741987276
100.318514648695
100.292892815405
100.274067287957
100.398309138504
100.427328840941
100.380728218201
100.400590985965
100.403653059295
100.3535266449
100.295467228009
100.327743502262
100.274132668564
100.396694714227
100.430229987104
100.38720924328
100.388650272931
100.314079941129
100.316122486011
100.244391085667
100.291787897753
100.377713268044
100.423161559092
100.390700567853
100.396002122451
100.331658289306
100.283692760543
100.324216644667
100.303526389075
100.307527007794
100.330320053734
100.241487368731
100.241521629047
100.3303825572
100.307798579354
100.303725718212
100.324282583338
100.283486647459
100.331668402872
100.316356700401
100.314018087848
100.327627355669
100.295186725157
100.292831445149
100.353225532175
100.400300521652
100.380477128874
100.394062282337
100.422149011633
100.422195659522
100.394265492744
100.364330962772
100.364334840113
100.44220137869
100.465097031926
100.453107719321
100.453131860192
100.454204609181
100.448428879785
100.429893795131
100.473203527944
100.474552988549
100.466700522069
100.468059234657
100.467058893104
100.460736902141
100.443816965689
100.443925509977
100.446374089783
100.455277577038
100.426533242042
100.425656204874
100.427583726812
100.434255663992
100.454540719617
100.452261490937
100.432972063942
100.391603763512
100.399199149008
100.377190148778
100.408747905731
100.396463897862
100.396412200433
100.408707212324
100.377251443869
100.399153424724
100.391670259043
100.396032463673
100.390692283175
100.388705212424
100.387074115983
100.403449456153
100.443845743735
100.443643603901
100.448331662679
100.454154822466
100.466662851623
100.467196382411
100.473633104303
100.473640284231
100.467266554791
100.461838512757
100.461815171551
100.472455368271
100.474605996162
100.475259456033
100.475287953033
100.47504741793
100.474914832097
100.471664975549
100.476798675395
100.478065088591
100.475934652592
100.477405982578
100.477186628933
100.476877685709
100.474895061575
100.477683852891
100.47645384599
100.473633412186
100.467775684195
100.470533342529
100.461331418615
100.478686725277
100.477919661041
100.475524321534
100.474652338372
100.47569421747
100.471747529874
100.470496391117
100.473996051063
100.456795001806
100.458706666358
100.459995889658
100.473855814888
100.469058122276
100.467422660576
100.466327109148
100.449378977701
100.441739051389
100.446068094787
100.430440439804
100.430437101896
100.446105753656
100.441790393469
100.449438088027
100.432991083828
100.452281898848
100.454566777404
100.43428345151
100.427562952453
100.425671499555
100.426471214907
100.446290567021
100.461238056673
100.467668555549
100.466964933218
100.467938618272
100.474873082737
100.474896907026
100.475013035161
100.47590803421
100.474310945688
100.476517885544
100.476550321116
100.474330115965
100.473262034264
100.473217666603
100.474653534623
100.476530233973
100.477078947114
100.477085865104
100.477518150439
100.477325527709
100.477854786253
100.477010408894
100.478243338202
100.478240387405
100.478048872196
100.477949297605
100.47834732285
100.478058376521
100.47704768049
100.477162773398
100.477733007115
100.477120485421
100.477541515346
100.477473945208
100.477129455
100.477024719621
100.477376042973
100.477445513827
100.477553598483
100.476639428073
100.477247469853
100.47612134005
100.47604878069
100.4748486299
100.476098373429
100.471043610679
100.472010541386
100.475341623229
100.473975270515
100.476591737084
100.472162097606
100.43555644299
100.431285144548
100.434976727131
100.446031405655
100.447752919521
100.437010312295
100.435649916454
100.432653172145
100.430761347516
100.426191246028
100.432113589522
100.421150120765
100.430658203711
100.446239349211
100.433490534533
100.435383368187
100.446494343238
100.467778759406
100.466005896721
100.471509080248
100.461943653789
100.465082390147
100.467672740403
100.469119006831
100.460218040397
100.450087098679
100.446689615466
100.424098170396
100.431435184553
100.438495467538
100.436140103121
100.430085759905
100.42349019924
100.439000915708
100.425253047116
100.425791503364
100.43606287758
100.438675758814
100.424953505825
100.423106952166
100.444306467118
100.474320605178
100.474370377429
100.462772790928
100.480524217682
100.4651128012
100.494384443327
100.477283645054
100.462713565242
100.467065356799
100.465883626687
100.469553192072
100.460767050499
100.46385020986
100.448653109712
100.430114653238
100.424941130921
100.430713524337
100.410300147572
100.417992992119
100.441869628003
100.438239314417
100.431830680245
100.424921720515
100.440775973891
100.429392557144
100.428966171595
100.436150140905
100.425954066374
100.424303700936
100.424218069215
100.424851153459
100.423048112784
100.444259084329
100.474290000592
100.474341269322
100.462728632773
100.480525494147
100.477031620303
100.433639950635
100.433603221123
100.433563394621
100.427339213537
100.433643966304
100.477015000274
100.478045017147
100.473849725956
100.48774736773
100.482607971667
100.462699970557
100.442418728036
100.461693460845
100.465922382311
100.462692623183
100.462709359246
100.463864595173
100.448668251115
100.430133747757
100.430330145928
100.430317662534
100.435554645408
100.436941741537
100.434280528732
100.438682728384
100.431202498861
100.423370176817
100.427930742549
100.44011337617
100.432924709335
100.447642164268
100.436181005531
100.437849989035
100.444549366921
100.434733080361
100.434709662366
100.425899338138
100.436023435635
100.435922338701
100.438523584358
100.435235125751
100.446381309411
100.467654037416
100.46593498804
100.471473984704
100.465084061532
100.494344861618
100.478036474307
100.427420525718
100.432165257939
100.432123451968
100.466747041449
100.466069143098
100.486848857905
100.482759897255
100.482778071537
100.465964750198
100.46960447801
100.460807835192
100.446747605328
100.424170195576
100.424975598235
100.430743150332
100.435563582171
100.436951992465
100.44352665217
100.443522013415
100.436989944627
100.437341059898
100.452207342759
100.445889682824
100.450058268237
100.449620858657
100.446218930944
100.444226477519
100.445251577053
100.446891066428
100.453999441562
100.454047872059
100.447060016329
100.445225873636
100.444506082585
100.437844289608
100.428859515864
100.425690066881
100.426515306271
100.433409242247
100.446188286328
100.465020802372
100.461904119737
100.462661384106
100.477231623254
100.482633938371
100.487760343942
100.473862469122
100.466751406196
100.466071894265
100.486861262141
100.460855179898
100.454899852717
100.462429615713
100.460724959181
100.454356334601
100.469284275785
100.469806185804
100.471726131221
100.472415606509
100.4719749913
100.470188780834
100.469885849943
100.469098516439
100.466465599667
100.463735454432
100.461906061586
100.463272729297
100.470585648467
100.480849737054
100.48716114593
100.488573593804
100.494021362676
100.502566950886
100.506680503775
100.516549640695
100.501174936983
100.462538537812
100.425392167191
100.3843798992
100.360819810118
100.378493127684
100.376451800678
100.375191813291
100.375782428389
100.376824655758
100.3777204388
100.378525052286
100.379295020244
100.379947888959
100.380392448046
100.380642865684
100.380769106266
100.380820075679
100.380820135293
100.38071345269
100.380503259452
100.380199629863
100.379807943002
100.379335990943
100.378811444313
100.378265901685
100.377728485059
100.377230827112
100.376800268428
100.376452079511
100.376182212165
100.37597519694
100.375814691207
100.375687172049
100.375580827439
100.375485468618
100.37538992323
100.375286366247
100.375169367487
100.375034131892
100.374889372625
100.374745242148
100.37470597011
100.374827376524
100.374925361022
100.375032063654
100.375049389689
100.375126627644
100.375103826608
100.375190440498
100.375152724354
100.375204778954
100.375188176817
100.375148701551
100.375101306629
100.375066789388
100.374973102826
100.374947170891
100.374912976198
100.374883550562
100.374855183464
100.374829755976
100.374787873131
100.374778553412
100.374743130813
100.374719427093
100.374678796735
100.374654224312
100.374609776921
100.374774303042
100.374662620589
100.374792710889
100.374815018392
100.374842840891
100.374861166793
100.374896239094
100.374923602697
100.374958688369
100.374971122495
100.374996742093
100.37501283789
100.375036149035
100.375079987384
100.375138378459
100.37516482057
100.375170924641
100.375125271572
100.375160649338
100.375066322876
100.375092009726
100.375007874689
100.37498941976
100.374889820376
100.374703816659
100.374826408282
100.374953703342
100.374971691701
100.375057020352
100.375028633701
100.375132398317
100.375101626777
100.375154413658
100.375144384989
100.375125670338
100.375108158337
100.375128080004
100.375132538086
100.375070413216
100.375102585564
100.374996069568
100.375016938941
100.374927514978
100.37490430625
100.374778444706
100.374570057199
100.374716118031
100.374865284402
100.37488608151
100.374980959918
100.374961849689
100.375070694028
100.375043502928
100.375109963282
100.375108884858
100.375093415472
100.375071832968
100.3750880648
100.375081818207
100.375016332479
100.375053549305
100.374930231986
100.374941158787
100.374842527736
100.374814026186
100.374665758809
100.374433183753
100.374606138152
100.374774137672
100.37480254605
100.374895490235
100.374910023914
100.374965313574
100.375022159185
100.37503572674
100.37506832175
100.375053330588
100.375034148631
100.37504534138
100.375004023076
100.374963477051
100.374923771752
100.374862491629
100.374851353622
100.374756961769
100.374721194328
100.374555431608
100.374294251977
100.374503064274
100.374683636256
100.374716133746
100.374809426666
100.374824780963
100.374869479246
100.374927560436
100.374971702384
100.375013339607
100.375010674823
100.374978918941
100.374978593067
100.374952341984
100.374867604643
100.37490170408
100.374886976735
100.374767543782
100.374766800461
100.374668399705
100.374630596649
100.374452812334
100.374158925399
100.374411744906
100.374599464117
100.374631109339
100.374734149971
100.374730158484
100.374858703518
100.374848556426
100.374933582113
100.374953990912
100.374959373387
100.374925452017
100.374923876933
100.374894904821
100.374810253934
100.374814350816
100.374691020918
100.374693820471
100.374589573232
100.374548620812
100.374367396437
100.374043194543
100.374346213577
100.374523211212
100.374560025483
100.374659263821
100.37465680185
100.374782788353
100.374776676175
100.374861665161
100.374893614123
100.374894699466
100.374820940445
100.374838107016
100.374819307783
100.374748268918
100.374742482602
100.374619816208
100.374624426084
100.374526948452
100.374480058617
100.374317471126
100.373959748022
100.374329834313
100.374454007098
100.374499361023
100.374585177035
100.374591013251
100.374705886136
100.37469338091
100.374749511969
100.374797360462
100.374743674564
100.374699888364
100.374706860392
100.374768348913
100.374657196144
100.374750142094
100.37467449696
100.374758096898
100.374685362589
100.374647333849
100.374561795573
100.374545496579
100.37446178783
100.374408869174
100.374291337658
100.374139882831
100.373826504341
100.373457507503
100.373855773905
100.37413712453
100.374267508855
100.374379943794
100.374431025128
100.374518744163
100.374542422249
100.374621945991
100.374650969538
100.374704996511
100.374648480771
100.374595734979
100.374257529587
100.374032077652
100.374234568386
100.37428948256
100.374315047191
100.374506836199
100.374378320235
100.374463103873
100.374622999833
100.374661690356
100.374597331647
100.374572541664
100.374485729195
100.374484358335
100.374350307929
100.374351841163
100.374227578431
100.374100615622
100.373812465956
100.373288954203
100.373822358832
100.374109416861
100.3742269117
100.374309924431
100.374437757409
100.37438742992
100.374543612029
100.374526295352
100.374600533856
100.37463751447
100.374584040196
100.374453556961
100.374433806349
100.374476491217
100.374571490228
100.37440537759
100.374588039956
100.374595305833
100.374531003116
100.374495001043
100.37452129994
100.374393230668
100.374397480346
100.374282476597
100.374212286967
100.374088193313
100.37380867052
100.373249563421
100.373859702688
100.374112324032
100.374202541514
100.374268657628
100.374360954406
100.374392765971
100.374473655555
100.374541792406
100.374461744832
100.374584101136
100.37457143205
100.374572426527
100.374562577349
100.374588881698
100.374567009199
100.374590032668
100.374611878975
100.374645232945
100.374674861316
100.374716727911
100.374747495342
100.374789514685
100.374822582096
100.374857097147
100.374901367306
100.374947002761
100.374977595158
100.375015751736
100.375049067676
100.375085946463
100.375118893546
100.375155870941
100.37518191636
100.375141097247
100.3752039489
100.375229095693
100.375189793986
100.375238200095
100.375186462339
100.375122094998
100.375095595382
100.374900295397
100.374798120875
100.374697532195
100.374562379095
100.374490285757
100.374422399082
100.374313324462
100.374237040863
100.374176629019
100.374101167901
100.374006497262
100.373944049739
100.37388379575
100.373804686019
100.373705224697
100.37367087507
100.373680612428
100.373892340772
100.373900768389
100.373997783242
100.374061695879
100.374123924946
100.374139525226
100.374192019339
100.374273744308
100.374323978952
100.374364035261
100.374427461657
100.374505736492
100.374558385899
100.374602636718
100.374736509975
100.374924608118
100.375064630267
100.375018262899
100.375075316188
100.375168646647
100.375165951512
100.375190041291
100.375213646656
100.375225011356
100.375257946274
100.37520674943
100.375142200142
100.374986942314
100.374865129419
100.374703670286
100.374536465785
100.374391344102
100.374303567342
100.37420667138
100.374066993907
100.373888591826
100.373766400436
100.373619789314
100.373489711334
100.373367362888
100.373246554499
100.373093367408
100.372960774571
100.372825964829
100.372672253111
100.372539407809
100.3725704787
100.372754195174
100.372951420879
100.373053264064
100.373178535952
100.373313716199
100.373440108615
100.373537011564
100.373653721175
100.373768134607
100.3739231657
100.374144487867
100.3741641216
100.37430168699
100.374429213387
100.374643177088
100.374515939491
100.374527528113
100.374860468889
100.374917498453
100.375071579812
100.375125861544
100.375131792585
100.375123350363
100.37508835489
100.375159000581
100.375185242773
100.375170675678
100.375227618891
100.375267240053
100.375252880364
100.375273453773
100.375224985126
100.37516140348
100.375044683664
100.374929755383
100.3747109512
100.37461879854
100.374501191818
100.374452800127
100.374274382017
100.374160547855
100.374075522187
100.373944221254
100.373758945281
100.373677042891
100.373545196913
100.373412319218
100.373247850406
100.373082059399
100.372926860524
100.372789646304
100.372605024522
100.372415186092
100.372188156156
100.371972024922
100.371784379608
100.371598414876
100.371335132602
100.371110544032
100.3710273718
100.371299814257
100.371609449089
100.371832751108
100.37194236427
100.372112277805
100.372309701962
100.372507628681
100.37267388173
100.372851724613
100.372988481982
100.373131202088
100.373282946922
100.373463711194
100.373646012787
100.37378635938
100.373961109853
100.373996867593
100.374141458523
100.374074104246
100.374158027039
100.374258818389
100.374366540223
100.374541593828
100.375014792126
100.375092137992
100.375093585027
100.375091501511
100.375145977061
100.375168137509
100.375214972027
100.37520703117
100.375250716665
100.375246538853
100.375289490486
100.37528921761
100.375249428017
100.375181862432
100.375096357171
100.375024485874
100.375001040685
100.374852341811
100.374711433028
100.374534234676
100.374373660801
100.374250482487
100.374029828809
100.374025553369
100.373948828525
100.373779527919
100.373732493744
100.373598656556
100.37348612827
100.373379330334
100.373251316381
100.373043115789
100.37297169114
100.372787279972
100.372618964544
100.372470687005
100.372247067215
100.372016886551
100.371799640606
100.371619161367
100.371377777622
100.371556792162
100.3718495437
100.372078198629
100.372305511669
100.372520995523
100.372660212756
100.37282835316
100.37303152803
100.373095487583
100.373181095282
100.373330456438
100.373464689508
100.373650114832
100.373800002316
100.373897194163
100.373910777096
100.373917187767
100.373955991912
100.373977897401
100.374078551721
100.373941681075
100.374075220577
100.374782814598
100.374799014473
100.37504245152
100.37519320636
100.375209637068
100.375211599938
100.375203647434
100.375226115606
100.375277830441
100.375264763973
100.375325736191
100.375306224911
100.375354311549
100.3753525797
100.375327695203
100.375276430103
100.375223496179
100.3751622865
100.375047603617
100.374901620722
100.374798054687
100.374570250935
100.374509442496
100.374335961931
100.374325899978
100.374202796328
100.374124135844
100.373974562326
100.373977776764
100.373901540604
100.373772666284
100.373763626171
100.373621652392
100.373503564628
100.373401066028
100.373261262913
100.373234138156
100.373065441348
100.372888916081
100.372722871434
100.372551459571
100.372370250746
100.372146617584
100.37190881546
100.371675725716
100.371414274612
100.37111177651
100.370794716877
100.370467550693
100.370106989941
100.370373235132
100.370812276685
100.371200213389
100.37139675519
100.37162046903
100.37185659291
100.372100614116
100.372327633466
100.37249680669
100.372665827573
100.372852074293
100.373082754312
100.373248853461
100.373265907336
100.373347004594
100.373470707304
100.373602789188
100.373796255809
100.373837039064
100.3738629997
100.373854434542
100.373897572413
100.373861972506
100.373804780599
100.37318848946
100.374045519382
100.372193794319
100.371454962595
100.371461708017
100.370959543454
100.37055929145
100.370015645263
100.36930490333
100.368407176824
100.367377314375
100.36530196367
100.366672912076
100.358205951261
100.358549489212
100.363472923928
100.363055669479
100.36489108204
100.365910115884
100.366780561776
100.367820370765
100.36878135158
100.369627243346
100.370373253775
100.371014854247
100.371560916915
100.372123352233
100.372503556019
100.372358838198
100.372699809528
100.37207532995
100.373541536426
100.373591175906
100.373110449344
100.373239038187
100.373121453155
100.373007522043
100.372773571273
100.372361856733
100.371773126984
100.370964342939
100.369802999014
100.368943600677
100.366397359857
100.366843100329
100.368230717519
100.368835323929
100.367121754443
100.363346220741
100.361549488175
100.361292206987
100.347623707893
100.352509706438
100.348794828177
100.354122639861
100.35569005372
100.356577190264
100.359850441342
100.359208580186
100.356296234233
100.354881476737
100.353319983822
100.356244100949
100.358956132069
100.361729307812
100.363441516764
100.364225238208
100.360774753435
100.359941310287
100.365764017389
100.37016875312
100.372525522776
100.373344956128
100.373773078297
100.373842047394
100.373800630104
100.373749383343
100.373860020626
100.37399104857
100.374143863838
100.374301476804
100.374456305392
100.374601842204
100.374731536536
100.374887124247
100.374885539052
100.375004288368
100.37504474874
100.37510819852
100.375127953363
100.37516010441
100.375187466209
100.37521174339
100.375207695005
100.375292928047
100.375305945064
100.375276655812
100.375312780276
100.375307887164
100.375277686142
100.375232891628
100.375225198612
100.375257386161
100.375304554183
100.375306064205
100.375332637648
100.375328993427
100.375345580958
100.37530730468
100.375351454067
100.375281321238
100.375157685836
100.375054032135
100.374981817945
100.374876178072
100.374851971803
100.374705783264
100.374582920899
100.374339759589
100.37433668796
100.37416720599
100.374199261585
100.374133519863
100.374081480828
100.373967757914
100.374026840602
100.373909519486
100.373904667054
100.373811807525
100.373740111555
100.373606369475
100.373589056308
100.373445495627
100.37332907259
100.373213178485
100.373072583171
100.372914265966
100.372734921003
100.372684384722
100.37247153022
100.372251803486
100.372032562513
100.371804424603
100.371551953523
100.371270506337
100.370997716775
100.371199626644
100.371564975754
100.371809474625
100.372039424823
100.372262325856
100.372476422804
100.372683898874
100.372665544832
100.372812750408
100.372997993535
100.373158808958
100.373317509832
100.373437197496
100.373588435725
100.37357591072
100.373671837049
100.373805740804
100.373897068488
100.373906976342
100.373842184219
100.373813324544
100.373806290707
100.373782523677
100.373685467895
100.373517081803
100.373743836566
100.373930977039
100.373882897053
100.37412258716
100.374798672856
100.375068772537
100.375124957891
100.375132582359
100.375205345923
100.375242408951
100.375263013002
100.375307073415
100.375299106643
100.375357080856
100.3753622666
100.375389311632
100.3753793985
100.37534712739
100.375276767192
100.375193453732
100.375120570334
100.375089027329
100.374955156761
100.37485722888
100.374721108554
100.374649329952
100.374437409793
100.374394553643
100.374200342669
100.374236357834
100.374093257147
100.374138333885
100.374111879718
100.374098668104
100.37402764615
100.374080317694
100.373981791315
100.373982069522
100.373894001294
100.373826660237
100.373714817943
100.373699515042
100.373568711626
100.373456696642
100.373341598018
100.373236550289
100.373090280541
100.373019842745
100.372827409266
100.372628194861
100.372407831904
100.37219764579
100.371974910997
100.371701905232
100.371410455594
100.371121956737
100.370789532522
100.370345038815
100.370099611485
100.370404085571
100.370845200188
100.371130761495
100.371436862759
100.37171666784
100.371971919793
100.372196021855
100.372418745654
100.372624097423
100.372845768208
100.373035748633
100.373023365781
100.373158568705
100.373290230912
100.373414043679
100.37355463777
100.373694234377
100.373704180223
100.373762625982
100.373860458688
100.373978212035
100.373980606872
100.373958933871
100.373961535721
100.373915461182