/*--------------------------------*- C++ -*----------------------------------*\
| =========                 |                                                 |
| \\      /  F ield         | OpenFOAM: The Open Source CFD Toolbox           |
|  \\    /   O peration     | Version:  v1612+                                |
|   \\  /    A nd           | Web:      www.OpenFOAM.com                      |
|    \\/     M anipulation  |                                                 |
\*---------------------------------------------------------------------------*/
FoamFile
{
    version     2.0;
    format      ascii;
    class       volScalarField;
    location    "1.1";
    object      p;
}
// * * * * * * * * * * * * * * * * * * * * * * * * * * * * * * * * * * * * * //

dimensions      [0 2 -2 0 0 0 0];

internalField   nonuniform List<scalar> 
74874
(
100.129217025606
100.131601209081
100.13207458019
100.130664369158
100.13617956615
100.13676595627
100.133608094275
100.135216425251
100.137733448689
100.137807100059
100.135694631942
100.134158532778
100.13744221471
100.136892197788
100.137903573264
100.138086979247
100.137468350732
100.134329640199
100.131420634378
100.130851054104
100.132325469516
100.13364261735
100.132124076201
100.131774424512
100.137215662554
100.13735158115
100.132750892731
100.133016516176
100.13417926292
100.132357947299
100.132495454712
100.133993630289
100.132998421049
100.132698254433
100.137284469632
100.136786652348
100.131684587977
100.13210077038
100.13354279011
100.131963505781
100.130532448923
100.131057903008
100.133964425236
100.137110793748
100.137558329654
100.137316201538
100.131173148616
100.13043278874
100.130038736719
100.129472614363
100.128459855468
100.128465165863
100.127750225426
100.128097886735
100.128364861656
100.128921648651
100.130122399332
100.129610877726
100.128003266179
100.127715946025
100.127448886963
100.126995785738
100.127040140885
100.127578025629
100.127739019
100.128074702455
100.129627689583
100.130161414548
100.129037206792
100.128520341463
100.128388309349
100.128050711692
100.128712427514
100.128722384184
100.129710681565
100.130327433296
100.130804611101
100.131583012129
100.13112718263
100.132697507992
100.132305984836
100.133448559482
100.133707930487
100.133492797667
100.132925656339
100.132444424107
100.131947629014
100.128791500068
100.127116476413
100.129147405981
100.128108791989
100.124416818426
100.125365765702
100.127977723374
100.127675315967
100.125931864202
100.124173513029
100.125755840371
100.127318547798
100.126669078567
100.125993045895
100.125577016002
100.123756914216
100.122692140472
100.123888840947
100.123833274451
100.12257172213
100.12370997887
100.125689828919
100.126172681951
100.126519146097
100.127527373672
100.126300333198
100.124653659557
100.126296483115
100.127935482168
100.128212273839
100.125541800565
100.124634289731
100.128517911516
100.129571748478
100.12763235328
100.129611511085
100.133173370329
100.133396897283
100.130985636525
100.130749538969
100.124330398815
100.132480858981
100.132074204556
100.126643706742
100.124169565391
100.128807458666
100.129180060702
100.123509221086
100.123743089571
100.126642457138
100.125049124545
100.123876564996
100.121880987128
100.12476776417
100.127343586735
100.12358298199
100.123026107569
100.125264967756
100.12163998903
100.119292175928
100.121476644782
100.121441814271
100.119230320966
100.121612384271
100.125376184183
100.123398445407
100.124246669324
100.128308602875
100.125751269884
100.122459301091
100.12429257745
100.125353276535
100.126927949261
100.123952776296
100.123671891805
100.129755302122
100.129278050816
100.12487025911
100.127900525256
100.134691798054
100.135570064442
100.125265830696
100.152401366327
100.150359368837
100.122939980327
100.122803125861
100.128130594839
100.117671644826
100.119205173303
100.130257669948
100.126631000604
100.12377859361
100.123708743845
100.128614734891
100.118188336187
100.11933344294
100.119591387232
100.119343617792
100.126167253614
100.122431539755
100.122395851584
100.126029691083
100.119472187022
100.119740523065
100.119509239787
100.118101070866
100.116551866376
100.119493059845
100.117249815737
100.108611160639
100.111214060878
100.082988082033
100.079099927665
100.079463406905
100.085233064632
100.116459512627
100.110776979078
100.093733352147
100.086743573295
100.080422861145
100.081177189947
100.086153583188
100.083136148217
100.084101891202
100.087398884059
100.087386238963
100.08405334419
100.083119589662
100.085789477695
100.084970025287
100.07876523939
100.07749470571
100.0820234495
100.080066012467
100.079897132951
100.078896894988
100.078922331772
100.085147475105
100.084352825019
100.084668302562
100.085053881118
100.080319763703
100.080892759986
100.082240684152
100.082216164412
100.080874508722
100.080109592863
100.081100685758
100.080326270235
100.078845090044
100.07887785877
100.085673328937
100.084735683339
100.084397819488
100.085165666483
100.086444055802
100.086387412575
100.085768565895
100.085947321969
100.086201132646
100.086233882271
100.085326872197
100.085044718662
100.085035826386
100.085217488974
100.084857917124
100.084628283027
100.084285967209
100.08521001576
100.086320227536
100.086630119897
100.085885811345
100.085780943352
100.084055482718
100.084343860504
100.084324735768
100.084119157842
100.084272967792
100.084272349494
100.084301552857
100.084165051798
100.085882571365
100.085856104108
100.086099187006
100.086020814267
100.085855675338
100.08569493467
100.083990148939
100.084175638199
100.084316562746
100.084031762971
100.081709620909
100.081761378997
100.081874220554
100.081902366773
100.081817175742
100.081934254374
100.081884545254
100.081934207793
100.081885771485
100.081871375934
100.084144884409
100.084217746448
100.084147688381
100.084151242758
100.081826422077
100.081675680304
100.081756692073
100.081771592214
100.079771488506
100.079759999091
100.079812236082
100.079871503394
100.079930765084
100.0798558366
100.079942734776
100.079911231627
100.079959807344
100.079924701692
100.079912775178
100.07993380976
100.081895576661
100.081800351029
100.07984522751
100.079862478902
100.079751115046
100.079822755184
100.078087401655
100.07804630015
100.077994803176
100.078026696543
100.07807006721
100.078148475282
100.078091987759
100.078172757251
100.078151486134
100.0781995849
100.078180649479
100.078175955321
100.078185593394
100.078100502275
100.078115201808
100.078036344164
100.076233297841
100.076235786568
100.076193685686
100.07609313843
100.076111202994
100.076157062758
100.076260911732
100.076231449222
100.076323353068
100.076303152603
100.076372710639
100.076385622528
100.076391366626
100.076387237157
100.076288245878
100.07629999566
100.074219847911
100.074143337563
100.074111917977
100.074060548878
100.073814674756
100.073826970602
100.073975208532
100.074086400667
100.074065960536
100.074185303101
100.074186527877
100.074291386139
100.074344537378
100.074398595451
100.074382991206
100.074265544213
100.071696431825
100.071614198166
100.071500132941
100.07147503105
100.071414847674
100.070819806843
100.070786247793
100.071214672473
100.071317967428
100.071332489065
100.0714857663
100.07155519725
100.071747469914
100.071810688394
100.071889215943
100.071829074125
100.068008304795
100.067789892853
100.067806401095
100.067601916189
100.067408415933
100.067609911859
100.066375985277
100.066233675146
100.067164572091
100.067046597714
100.067208700082
100.067476610826
100.06752007038
100.067884347467
100.068064522828
100.068121337308
100.062061546243
100.061909114372
100.061394853241
100.061665159311
100.061536755308
100.060655210447
100.061541135436
100.059020178693
100.058897183051
100.060859712175
100.059965012011
100.060682900517
100.060954673101
100.060953521829
100.061494578958
100.061883108095
100.039579860067
100.039791004353
100.036523116976
100.036197793727
100.039840599066
100.040426184818
100.035668196384
100.036140321008
100.036059538062
100.035969910763
100.035521638059
100.034424008769
100.03926626701
100.038932482515
100.03568182743
100.03611954175
100.041947970358
100.044743688018
100.044820260269
100.042673947667
100.042451588738
100.044091602181
100.04631684283
100.040108317603
100.026939727759
100.069319750293
100.104964765727
100.104644038375
100.068185715256
100.035383623
100.035595659176
100.174216527013
100.298734030586
100.224190730932
100.222226775793
100.175422195529
100.160062333385
100.145452414607
100.039116829978
100.045656671651
100.043847562862
100.0418660119
100.151239178384
100.151892817349
100.190678128991
100.129619931017
100.130355090423
100.192038264889
100.153144704121
100.151954178615
100.188325772961
100.125279811385
100.123057353718
100.179179096237
100.145768593255
100.162973220581
100.177999247782
100.298010177759
100.368071585433
100.346410997776
100.343135833691
100.361916960271
100.340234273875
100.293788541701
100.459220218296
100.485463767593
100.492532254264
100.526424214682
100.596578117675
100.600780523233
100.521544713905
100.454556354312
100.388121840843
100.350199237571
100.374182189446
100.372702576475
100.369632486558
100.3697308454
100.370646750095
100.371626219562
100.372892338062
100.374706728501
100.377063183134
100.379808383401
100.382678546958
100.385219209182
100.386831490807
100.385609354325
100.383916788273
100.381908751328
100.379719982165
100.377514467822
100.375310165887
100.373111153807
100.37102114839
100.36916696327
100.367645926387
100.366475298036
100.365581750832
100.364878143382
100.364310483417
100.363863822793
100.363546460043
100.363381677079
100.363436709289
100.363819612931
100.364708867072
100.366251330431
100.368111852499
100.369970608957
100.371704960747
100.372808606555
100.372698920162
100.372629465697
100.371993107664
100.371457275498
100.369620682316
100.367661352505
100.365900724283
100.364567499297
100.363846868409
100.363533752383
100.363471942087
100.363609772591
100.363907045028
100.364338747447
100.364879075777
100.365538161889
100.366380450194
100.367471554892
100.368885717227
100.37061101215
100.372576203402
100.374666706647
100.376741132582
100.378756974611
100.380701503549
100.382453551793
100.383946999148
100.385036353125
100.38557177803
100.387434378609
100.388698308466
100.38805435657
100.386749368881
100.384924985384
100.382741707604
100.380369504868
100.377989808769
100.375655398224
100.373368896083
100.371195800376
100.369266720915
100.367681102938
100.366457491624
100.365527604726
100.364801204433
100.364226458984
100.363792547773
100.363495713864
100.363353770635
100.363447751595
100.363928417618
100.364971570226
100.366676616639
100.368593152313
100.370395848927
100.37202949739
100.37306317371
100.372938874697
100.373295168143
100.373547861636
100.373544608727
100.373764984026
100.373655581557
100.373872918162
100.373763140462
100.373984328747
100.373927258787
100.373986770787
100.373836676229
100.373775033257
100.373645758979
100.373482679558
100.373456668296
100.37339937552
100.373669259688
100.373840818228
100.37378247264
100.37383721018
100.373642596627
100.373740948877
100.373532115629
100.373647181792
100.373429319637
100.373428577597
100.373179313681
100.373020229107
100.373286943668
100.373298036774
100.373506405941
100.373407180252
100.373596253366
100.373540222476
100.373701263391
100.373633288393
100.37363793737
100.373431453089
100.373414565519
100.3733178758
100.37331465782
100.373239170176
100.373368757136
100.373507317614
100.373519035973
100.373380618428
100.373461493157
100.373288854616
100.373376021686
100.373177772756
100.373156789649
100.372879052694
100.372691141377
100.372956528466
100.373012792579
100.373204158974
100.373164270107
100.373277928674
100.373330965092
100.373242950824
100.373454795368
100.37354895956
100.373635713374
100.373766690702
100.373906700952
100.374057809524
100.37391320585
100.374153798626
100.374102423863
100.374178326859
100.374025224957
100.373974895538
100.373774366389
100.373479861209
100.373170130675
100.372980115487
100.372815249854
100.372621073831
100.372462946596
100.372484729917
100.372649250467
100.372888151578
100.373074060462
100.373255604894
100.373584956473
100.373410042064
100.373235109773
100.373132448357
100.373224077415
100.373142709637
100.372821477356
100.372566205623
100.372460978529
100.372299071667
100.372371155059
100.372429125611
100.372708764463
100.373008853913
100.373095171541
100.373154688509
100.373293178482
100.373376001025
100.373513735185
100.373626332766
100.373735615526
100.373864405645
100.374016328621
100.374173927926
100.374230778448
100.374306811618
100.374129602122
100.374098804292
100.373841937671
100.373650360317
100.373374225292
100.37293934648
100.372506239108
100.372157192795
100.372001852542
100.371763115559
100.371739186877
100.372034731207
100.372375853562
100.372783613775
100.37254601852
100.372239660575
100.371918623937
100.371725025276
100.371535993927
100.371312747839
100.371147290957
100.371259231667
100.371480648555
100.371778532855
100.371962252401
100.372055405577
100.371795407192
100.371948566653
100.372342903574
100.372301569072
100.372659749239
100.372855419857
100.373186276598
100.373369578073
100.373402963361
100.373524570414
100.373646686803
100.373775728806
100.373678732368
100.373906306883
100.373791316091
100.374028608612
100.374166797039
100.37404994293
100.374286028082
100.374436539531
100.374415555565
100.374499756266
100.374389952831
100.374166030968
100.374174732525
100.374145016951
100.374293021328
100.374259027864
100.374393465811
100.374322160936
100.374348345746
100.374181682637
100.374303591296
100.374554457561
100.374528125353
100.374612281346
100.374552791696
100.374384239568
100.374314950653
100.373879855873
100.373700488679
100.373561580968
100.373184414019
100.372728638071
100.372371567726
100.371799620927
100.371611866082
100.37134238052
100.371102846314
100.370891387384
100.370683197046
100.370391781305
100.370096131336
100.369988774081
100.370311087168
100.370693712407
100.370928049891
100.371130247844
100.371348936143
100.37155354137
100.371293519577
100.371431912876
100.371233081418
100.371533006241
100.372056708156
100.373210402109
100.37354355506
100.373571503134
100.373816723512
100.373811581026
100.374034689172
100.373920771933
100.374059597112
100.37430220265
100.374422255724
100.374547556359
100.374437346663
100.374684755258
100.374661941044
100.374741922772
100.374673416642
100.374494542274
100.374426118521
100.374043369799
100.373850838803
100.37350137194
100.373101594967
100.37277557953
100.372568157856
100.372024120639
100.371863946304
100.371696764567
100.371569154302
100.371582320853
100.371284039942
100.371003187279
100.370801581713
100.3704288931
100.370640089211
100.370984364705
100.371276290607
100.371424258043
100.371138416057
100.370848845313
100.370470740797
100.370523312147
100.370072807692
100.369666384998
100.369338756553
100.369090384407
100.368869454029
100.369136064161
100.369478382685
100.369813388248
100.370162920629
100.369921790058
100.370058594237
100.370149784988
100.370371239948
100.370467993241
100.371088570499
100.371686636573
100.372914216415
100.373265844333
100.373424583489
100.373445346174
100.373690401637
100.373704439851
100.373829443347
100.37398120945
100.373966511796
100.373953763701
100.374178362117
100.374299815258
100.374185849503
100.37430764244
100.37442037538
100.374646810482
100.37454614192
100.374783539072
100.374755189566
100.374837282124
100.374763835884
100.374636576481
100.374520739198
100.374212489069
100.373993314497
100.373615906128
100.373207631907
100.37291501178
100.372407993186
100.372299789843
100.372112600387
100.371959715816
100.371841894372
100.371871962103
100.371732783687
100.371947923603
100.371659820246
100.371359807109
100.371056788548
100.370723352347
100.370359663733
100.369947681171
100.369543128271
100.369028449065
100.369325097859
100.36982895626
100.370297987571
100.370548646997
100.370824587206
100.371132497833
100.371437019412
100.37145021417
100.371345839165
100.370996108642
100.370194819908
100.370069128736
100.369930828692
100.369324098888
100.368846144383
100.36757516542
100.367967745357
100.368739895653
100.369480708225
100.370206391671
100.370500894792
100.370312651401
100.369829150522
100.369145895305
100.368428899656
100.367473484608
100.366578564631
100.366063281291
100.364034023305
100.362809190173
100.364324106429
100.365480013773
100.366256196973
100.367290879889
100.367081537571
100.365778722704
100.364962742547
100.36366499207
100.361950317533
100.360684905994
100.360925039624
100.362162024704
100.363921607078
100.365143974101
100.365813838255
100.366879412416
100.36748629413
100.368347466129
100.369402086085
100.370155162237
100.370889756308
100.371518393374
100.370790092676
100.371066953096
100.370808191094
100.371741528541
100.371191438783
100.370600272943
100.36999920137
100.369408208972
100.368781125168
100.367952730343
100.366673025391
100.365898841514
100.36483417488
100.36425838756
100.36375863773
100.362417865503
100.361744215976
100.360624548952
100.354568269272
100.356191101695
100.356771462424
100.35943754846
100.361114663529
100.364002342812
100.364952084448
100.367731320969
100.36864161095
100.370784051809
100.369964959422
100.368834200667
100.368795611855
100.36881464839
100.368911394122
100.369417786306
100.368728175222
100.367038870258
100.366613684507
100.366457283822
100.366470757772
100.368563982717
100.370666982293
100.370643853606
100.371489898092
100.371986911105
100.371982006281
100.372398858179
100.372157496481
100.372308035357
100.372358879282
100.372387972249
100.372298929782
100.37217351952
100.371990111373
100.37147066208
100.371252075995
100.371446682126
100.371522415851
100.371437299907
100.371703959857
100.371693200859
100.371769392924
100.372093504724
100.372174978227
100.372397901246
100.372126438453
100.372364870468
100.372417493087
100.37210623601
100.372299486074
100.371982228596
100.371971253317
100.371504447101
100.371408864341
100.371903773206
100.371924996119
100.372218502125
100.372080127444
100.372319321764
100.372109474305
100.372286870225
100.37208668417
100.372009942162
100.371937283191
100.372056317584
100.37220184786
100.372129116566
100.371983001572
100.371798399873
100.371428253035
100.370954887395
100.370484911251
100.370914663017
100.371011271429
100.371442191349
100.371340018027
100.371769543049
100.371937570687
100.372127359492
100.37190754704
100.372124278612
100.372171654581
100.371992094919
100.372123458226
100.371746953688
100.371834900825
100.371567390431
100.370896206136
100.370664524654
100.369849750736
100.369998600317
100.370131737972
100.371100896616
100.371619729221
100.371654540011
100.372019585376
100.371794146222
100.372130293979
100.372100078146
100.371891556238
100.372056849984
100.371877017937
100.371661087908
100.371470279426
100.371759824319
100.371888816382
100.372008982897
100.371971795121
100.371865280524
100.371636346648
100.37127521841
100.37058079213
100.369812315547
100.370535620157
100.370758208294
100.371257303883
100.371213593596
100.371648004854
100.371850641738
100.371973066799
100.371706986421
100.371974306997
100.37196633367
100.37182526133
100.371843908126
100.371993052773
100.37158194391
100.371647900021
100.371244242389
100.370460471756
100.370565883168
100.371357997262
100.371411998438
100.371946279499
100.371719285808
100.371815393679
100.371861154374
100.371824091373
100.371830915464
100.37182541224
100.37193511858
100.370256692508
100.371246604327
100.371285427891
100.371558902733
100.372043617136
100.372169304785
100.372176385937
100.372428975911
100.372382818281
100.372479251492
100.372541587204
100.372379050497
100.372493096796
100.372306796369
100.372291100695
100.372385321262
100.372436933487
100.372475174811
100.372622200208
100.372663133751
100.372645136608
100.372341738348
100.372276082833
100.372327629055
100.372099124455
100.371754024963
100.371468356112
100.370800998837
100.370217400864
100.369658255315
100.36986876615
100.370067284725
100.369993814767
100.369909942226
100.370365250955
100.370423109863
100.370547712123
100.370566985774
100.370214352288
100.370570179388
100.370848867109
100.371192762459
100.371709184368
100.372019984821
100.37216278939
100.372195097649
100.372234437457
100.372231543917
100.372311187021
100.372529287978
100.372470308183
100.372665403105
100.372561091967
100.372733453089
100.372935679176
100.372830479229
100.37280904988
100.372523742675
100.372408053919
100.372154292482
100.37173174511
100.371278812139
100.3711625821
100.371311753978
100.371433377289
100.372001531124
100.3715724052
100.371698852775
100.372056777265
100.372209531286
100.372458443067
100.372499792283
100.372627077211
100.372554177341
100.372834129915
100.372707304339
100.372753240461
100.373058901014
100.372966105934
100.372943266804
100.372797632124
100.372604288654
100.372811637954
100.372881243175
100.37299085316
100.373108383381
100.373174372071
100.37311812332
100.372994028259
100.373020039911
100.372780184173
100.372760589289
100.372595494689
100.372239420974
100.372231769079
100.371682375696
100.371280980564
100.371191634796
100.370919752393
100.370811140873
100.370750615075
100.370680885409
100.371574986235
100.372091809346
100.372153077612
100.372352121748
100.372383757136
100.37265749092
100.372838994316
100.372604299189
100.373016272907
100.372991233242
100.373121959726
100.3732290714
100.373362664892
100.373467108628
100.373598154423
100.373719187233
100.37387573687
100.374003487745
100.374151527822
100.374272586774
100.374403294173
100.374509125229
100.37461617356
100.37452610133
100.374735771919
100.374639511157
100.374865249772
100.374845539117
100.374937375546
100.374837293364
100.374790555904
100.374677139439
100.374646260725
100.37442253031
100.374152407135
100.373755531938
100.373367497639
100.37309429286
100.372611149403
100.372532907266
100.372381463629
100.372325920783
100.372319322908
100.372070592344
100.371948586862
100.372170815089
100.372161152775
100.372198612559
100.372275335833
100.372024937603
100.371779736985
100.371524076234
100.371233017016
100.370905241125
100.37046485932
100.370722849937
100.371123017051
100.371410570589
100.371680130515
100.371941273136
100.371920628253
100.37163980569
100.371357759841
100.371058724226
100.370668733479
100.370153789703
100.370486153493
100.36999031755
100.369471342211
100.368988818554
100.368571307564
100.367888027756
100.368300579224
100.368899432532
100.369268527465
100.369727483515
100.369694451255
100.369581866047
100.369303249854
100.369151114805
100.369022067137
100.369220479163
100.368877292478
100.369599103171
100.37157837848
100.371974257495
100.372393555901
100.372407794726
100.373365017662
100.373222826585
100.37373410973
100.373865300601
100.374091271307
100.37408637481
100.37421649318
100.374419715393
100.374526066179
100.374629834973
100.374707444033
100.374617402039
100.374806818394
100.374732560062
100.374932434365
100.374913881529
100.374989746963
100.374883447535
100.374846422939
100.374720936329
100.374471281461
100.374279950541
100.373893565332
100.373567423428
100.37328198341
100.372842417734
100.372733981139
100.372435754459
100.372552957217
100.37235648292
100.37249752452
100.372478412802
100.37259808108
100.372374542862
100.37237531181
100.372460412773
100.372532121693
100.372485338332
100.372569662365
100.372320191016
100.372085469369
100.371835428453
100.371546975437
100.371236111438
100.370880094757
100.370423983413
100.36999735241
100.369603021391
100.369981802864
100.370440327014
100.370725753011
100.37110271209
100.37141725176
100.371698684849
100.371955914813
100.372214537558
100.372234648334
100.372152955457
100.371729704775
100.372136478508
100.371666885856
100.371174889593
100.371643307209
100.37114304137
100.371382896639
100.370969927083
100.372222066082
100.371166678834
100.3705615225
100.369801622266
100.368990890536
100.368242045839
100.367579433263
100.366908461565
100.366037972862
100.365111293427
100.36370959878
100.364025897692
100.363732141833
100.363188277411
100.361729167531
100.360461530546
100.359892443004
100.359869085582
100.353461003029
100.353943451142
100.352321887747
100.353088766819
100.352769647286
100.354477610181
100.35550181493
100.354609416497
100.353080095465
100.354768486539
100.354378420852
100.354706754978
100.3554925367
100.355741198658
100.354692591228
100.355163343309
100.358282828492
100.353863819109
100.353698585673
100.355709320694
100.355628951524
100.355793235163
100.357704903092
100.358906641818
100.360095446293
100.359372319646
100.357931164662
100.359395907334
100.36083696968
100.359596840876
100.357945460208
100.358223907444
100.360022072379
100.361499608633
100.363364028579
100.364838710228
100.365543527049
100.363871100374
100.365203987216
100.366677278513
100.367177095187
100.368623663961
100.367831781915
100.368963868441
100.36988107768
100.370696550825
100.371336934144
100.371917584962
100.372124915304
100.37237791552
100.372183729754
100.371389387332
100.371794860908
100.371623781313
100.372546490803
100.371680459929
100.369279239021
100.368709229599
100.368013504295
100.367231370424
100.366490685857
100.365885597761
100.3652922885
100.364654542134
100.364009335042
100.363512767629
100.363518574704
100.363871483396
100.36394556753
100.364134934804
100.363753726197
100.363067505354
100.36437070378
100.364602726056
100.365393487598
100.366756682253
100.368864128645
100.369315218195
100.367206181926
100.365602150561
100.364529247954
100.363988862248
100.363731726598
100.363647494412
100.36373496374
100.363983733834
100.364368396346
100.364856797758
100.365450482373
100.366203612053
100.367165544434
100.368408724557
100.369951554027
100.371771138262
100.373770679608
100.375759642222
100.377582541821
100.37922354188
100.380675097705
100.381919362447
100.382845479327
100.383305283759
100.383266227893
100.385543301151
100.387416855613
100.388689188882
100.389259283057
100.389263571442
100.388598184104
100.387248765301
100.385351006562
100.383077369841
100.380597653529
100.378109050305
100.375683014681
100.373325463351
100.371097820793
100.369140487513
100.367541732632
100.366307914139
100.365377889851
100.364656862892
100.364096086044
100.363698953333
100.363459728082
100.363391269521
100.363570545652
100.36417488401
100.365371669406
100.367193045133
100.369140440147
100.370880284063
100.371417191458
100.372817791702
100.373686956426
100.373542733062
100.373834726831
100.373537644485
100.37410641343
100.37424235473
100.374227957031
100.374344620706
100.37433933125
100.374452513803
100.374555870425
100.374639826552
100.374777025362
100.374697052566
100.374869539559
100.3748122137
100.374986087178
100.374975221302
100.375038921922
100.374949944824
100.374911853599
100.37479244245
100.374551686995
100.374379407947
100.373921386433
100.373738999023
100.373510696893
100.373388816141
100.373131266205
100.372983884054
100.372704022542
100.372756291544
100.372703438808
100.372704805773
100.372793446701
100.372713636939
100.372931068252
100.37276183414
100.372505151611
100.372694313666
100.372732949582
100.372767596611
100.372848321904
100.372646470043
100.37261233104
100.372270789438
100.372009615864
100.371752810853
100.371441482948
100.371110499333
100.370714128639
100.370448600587
100.370653071056
100.371059614797
100.371386938536
100.371703936482
100.371959846861
100.372219646833
100.37249119595
100.372484740642
100.372549330012
100.372464302656
100.372300578811
100.372479037349
100.372304553212
100.372549111377
100.372137644577
100.372569531625
100.372178140425
100.371835301212
100.372093138692
100.372214505099
100.371976995378
100.372817849994
100.372179782279
100.369865904731
100.367959279807
100.366675999886
100.365933653033
100.36540384362
100.364868324023
100.364454927853
100.364080012045
100.363808578768
100.363527396263
100.363413944228
100.36332464778
100.363171816411
100.363469546982
100.363155078041
100.363907211958
100.363770000724
100.363978953522
100.363829026538
100.363741098509
100.363918814718
100.364042039167
100.364427246114
100.364069219695
100.364137591342
100.36376414755
100.363397023302
100.362398042401
100.361012349747
100.360839416019
100.359932949965
100.359587353445
100.353634704307
100.355155478257
100.354863418681
100.355460739465
100.355661607169
100.357223989868
100.358418820611
100.357609656822
100.35670289811
100.357445056709
100.357887045635
100.357877955717
100.358184227814
100.358720509745
100.357866990952
100.360347220374
100.360972500528
100.358760574376
100.360399318719
100.360517159199
100.356343497093
100.355832144142
100.354092373961
100.357998799956
100.360790187003
100.364257246057
100.367329452092
100.368787516648
100.369383646475
100.370503435807
100.371237565753
100.371442170964
100.371372825306
100.371815871279
100.371662993157
100.371893557708
100.371906070934
100.371706177137
100.371819602938
100.371569852171
100.371290836974
100.371624198955
100.371796277819
100.371716854472
100.371461143044
100.371050039019
100.370439050392
100.371158580262
100.371276394384
100.371643685896
100.371581297589
100.371809432975
100.371986363083
100.371922670806
100.371654208278
100.371890358138
100.371949574037
100.371529113711
100.371714977341
100.371847225612
100.371409972119
100.37142242863
100.370892562582
100.370007758255
100.368890375909
100.368439896793
100.366511082215
100.368141263939
100.367969650205
100.369168695226
100.370089127646
100.371016098385
100.371467948809
100.371443262665
100.371815584579
100.371650831623
100.372007136827
100.371851355021
100.371806620725
100.371800075879
100.37170853255
100.371617848311
100.371457532936
100.370307332768
100.371195505949
100.371356322747
100.370352936527
100.367690761681
100.368937253739
100.369270483401
100.370624925506
100.371330357404
100.371426674468
100.370831878039
100.368192588807
100.369585502163
100.37011020947
100.371063505596
100.371526744459
100.371189966619
100.370913726341
100.370666896024
100.370201790627
100.369003385794
100.369966195183
100.371010898189
100.371100249608
100.371218549685
100.369619222464
100.370398621517
100.370631978962
100.371379559456
100.371862615619
100.371973625744
100.371963879407
100.371997330129