/*--------------------------------*- C++ -*----------------------------------*\
| =========                 |                                                 |
| \\      /  F ield         | OpenFOAM: The Open Source CFD Toolbox           |
|  \\    /   O peration     | Version:  v1612+                                |
|   \\  /    A nd           | Web:      www.OpenFOAM.com                      |
|    \\/     M anipulation  |                                                 |
\*---------------------------------------------------------------------------*/
FoamFile
{
    version     2.0;
    format      ascii;
    class       volScalarField;
    location    "0.5";
    object      p;
}
// * * * * * * * * * * * * * * * * * * * * * * * * * * * * * * * * * * * * * //

dimensions      [0 2 -2 0 0 0 0];

internalField   nonuniform List<scalar> 
87341
(
100.099413467706
100.101425411379
100.097819776763
100.102331713688
100.109348526309
100.109584585131
100.107619745629
100.108220323254
100.108427896664
100.108751059043
100.108920179636
100.108651984948
100.110432727237
100.109978657092
100.112211730366
100.112260770789
100.10977256488
100.106332747021
100.103828347713
100.103494707251
100.103366140732
100.10479492043
100.102600611658
100.104347803007
100.106662562768
100.110814139861
100.105433201318
100.104389731694
100.103632272229
100.103433948123
100.103312255137
100.103734666357
100.104324960916
100.105318744807
100.110561949959
100.106503084806
100.10412832493
100.102306631603
100.104438543561
100.102982436511
100.103167223244
100.103506905395
100.106037093302
100.109469060175
100.111821967096
100.111670216632
100.104919572266
100.103995063316
100.101135220194
100.101238053206
100.101573469921
100.101419756422
100.101359767687
100.101155085339
100.098800430176
100.102203144513
100.105643584455
100.104098656293
100.100835553194
100.099816549907
100.099106186054
100.099786786285
100.099732011839
100.098959684806
100.099876420719
100.100908967652
100.104248145079
100.105854733096
100.102454079025
100.09904553455
100.101483186735
100.101697198316
100.101697682735
100.101831686625
100.101391301239
100.101289297218
100.104299456644
100.105326176361
100.102912911693
100.106108649352
100.109189713565
100.110708106146
100.108564558993
100.108327098095
100.10954484804
100.10770530777
100.105236563761
100.100981291666
100.106444341583
100.094924937829
100.083725527733
100.089733535962
100.090944136351
100.101063256263
100.09589719064
100.096945438591
100.099538963514
100.098519667679
100.097997475524
100.098140209082
100.097441476704
100.101810269424
100.102384286908
100.098223421241
100.098644217162
100.095865391797
100.094721277555
100.095713869555
100.095732346078
100.094792149023
100.095914936002
100.098660592069
100.098364025073
100.102552506628
100.102091327778
100.097612049848
100.098513249065
100.09834301064
100.098805386231
100.099820876472
100.097117685671
100.095983185101
100.10151011051
100.101811868513
100.098473064683
100.102181573043
100.108577327909
100.113566824382
100.10651844588
100.106340765709
100.111157774261
100.126497381126
100.095967331944
100.096534098248
100.081148802465
100.054324473777
100.055215201233
100.050953219911
100.051448089091
100.057597377969
100.087837194007
100.099230613039
100.096019470787
100.095704936866
100.100376383063
100.107016729738
100.089039706841
100.089629607356
100.090961607608
100.099879206513
100.09508287778
100.095080702779
100.09984799971
100.091003186627
100.089701395584
100.089164039311
100.087620085726
100.088102596899
100.091402923426
100.089652581003
100.049756757333
100.051830479407
100.053062314549
100.052832259966
100.051876217229
100.051918839861
100.054052547313
100.054446233046
100.058101065227
100.087449320125
100.082598622346
100.06625502338
100.0605389992
100.060382161336
100.057495539618
100.058448530232
100.052913977671
100.05308550511
100.055440447858
100.059152223292
100.059161695874
100.05545608683
100.053079854386
100.058236679691
100.057332299615
100.051013160852
100.051889661941
100.058283070891
100.058708279645
100.05783320654
100.057521663234
100.058441374911
100.058295705691
100.05742745255
100.058532968451
100.058618549742
100.059289371139
100.059459077869
100.058812950828
100.054090273587
100.054894043579
100.054885238079
100.054138881342
100.053073982633
100.054196128562
100.05381362267
100.057284162524
100.058431341418
100.059187060396
100.059492123949
100.058817126479
100.058746062752
100.059439165256
100.05933157585
100.057187384499
100.056953647432
100.057076533266
100.057268338423
100.057368801408
100.057249433888
100.059041192729
100.058150545594
100.058131716777
100.058723723015
100.058205120794
100.05727908651
100.058430624709
100.056889418613
100.056769390244
100.056958864371
100.057053122909
100.056860872775
100.056903464453
100.057174562172
100.054731213416
100.054803987475
100.054750513595
100.054877342556
100.054959459772
100.055050846033
100.055018480674
100.054987749544
100.057213707235
100.059000691819
100.05930319058
100.059096442074
100.05707651198
100.054761903368
100.054667168912
100.054534623629
100.054557410555
100.054572426545
100.054528973941
100.054595529511
100.052583636377
100.052766401061
100.052837635836
100.052758606269
100.052901834942
100.053068890352
100.053211386835
100.053186451957
100.053150963348
100.053098665285
100.054950659466
100.057255638698
100.057662022641
100.055160791447
100.053354837408
100.05286009566
100.052672393715
100.052552888613
100.052641730835
100.052645490658
100.052530836713
100.050456376568
100.050465468933
100.050859913102
100.050925679082
100.05076509268
100.050949498121
100.051343003021
100.051609228422
100.051550457388
100.051513664011
100.051486289809
100.05113054431
100.050704891541
100.050577289659
100.050789488602
100.050780734311
100.048348386074
100.047717274049
100.047673981859
100.048409196061
100.048587720699
100.048261186232
100.048481653883
100.049213484747
100.049681964823
100.049607195641
100.049571969973
100.049546412243
100.048999665153
100.048206074377
100.048065354248
100.048440607003
100.045866424844
100.045638755149
100.044279354816
100.044077717859
100.045620033999
100.046109108229
100.046137827976
100.046491876999
100.047105975825
100.047939445816
100.047535956256
100.047522309289
100.047802517627
100.046893712071
100.046196003656
100.045862382315
100.040987118349
100.035198727112
100.03393571511
100.036742803294
100.037031750557
100.035481555121
100.036205791288
100.041565342648
100.042918139389
100.039910081177
100.042795712391
100.044119618859
100.044127999665
100.042819630409
100.039703773844
100.042574174036
100.063854153276
100.063210365593
100.064211668404
100.0665142588
100.073936084871
100.063917633025
100.063596797944
100.072756066617
100.070386869177
100.06322701065
100.070028057394
100.082081804819
100.080655876831
100.069693453789
100.06110470591
100.059737009818
100.057329696264
100.062107296639
100.0644115561
100.069535741934
100.06290791652
100.055504700131
100.054943451654
100.05198568603
100.046763276114
100.045939693429
100.050221026228
100.053652572987
100.054822507368
100.058597684604
100.072272566526
100.065799926754
100.069825907038
100.06298827151
100.064894311911
100.058961620579
100.070088379435
100.068172840691
100.066671884432
100.071199721067
100.090498439673
100.126719119496
100.169686846476
100.219179659679
100.269538290976
100.322900055295
100.365224885554
100.397461852285
100.435196516417
100.460838067797
100.474346932407
100.483426097514
100.452301999716
100.455759492897
100.458916875437
100.459683868707
100.458323236537
100.456703590621
100.456498631936
100.464911306773
100.463423928075
100.465195210089
100.467540189656
100.468832412294
100.47049160361
100.468638989101
100.469759427612
100.447226250168
100.460769260037
100.475032265132
100.462424188605
100.454627487102
100.444639939075
100.443729584872
100.447936042935
100.441535050487
100.421669343788
100.430298607528
100.440542780448
100.443351876933
100.433580997263
100.434559138714
100.441630831778
100.450524953088
100.447771637542
100.464720744237
100.416152982546
100.428326785283
100.431386920722
100.43046756988
100.427096788344
100.416342588595
100.420713306157
100.421460540897
100.414274483069
100.410043550208
100.415232414712
100.419800265002
100.4201080733
100.415262603184
100.409121073611
100.413424304332
100.421929142766
100.421083797571
100.468980532936
100.466080903157
100.408864831469
100.411444242076
100.409724911946
100.408296048602
100.413730242855
100.402140623145
100.398223783521
100.410161196782
100.409494838649
100.408035709838
100.410710385065
100.408338968399
100.414584008621
100.408504907041
100.401503021491
100.409275406379
100.42361986263
100.448987377931
100.446246375804
100.455492391112
100.456445870923
100.457265504084
100.458431066601
100.461314477299
100.462415282514
100.465676798001
100.462232829616
100.463237454238
100.465381870812
100.467570772669
100.461677290139
100.471711971893
100.456157321606
100.442954453029
100.441568661351
100.454187802674
100.448209676047
100.441356766689
100.437368407797
100.426388882113
100.419101214437
100.440051975074
100.459078098871
100.461199923934
100.463000129486
100.414949862781
100.414172572169
100.413060230612
100.407441813395
100.400942760247
100.406262010037
100.402049116729
100.395090037689
100.401603179651
100.405234634051
100.40081608065
100.403544704235
100.401772871342
100.403240600757
100.402592283005
100.398420243002
100.402178039182
100.401122824665
100.405009943745
100.399914346316
100.395098795005
100.405309861276
100.40984833401
100.419079853191
100.429611062043
100.431821139289
100.427569483739
100.420861582329
100.424046912789
100.457731605315
100.485743496043
100.470000043384
100.489939771336
100.504697215678
100.468734543659
100.446047966035
100.449354201573
100.468402260201
100.464018178553
100.463553668141
100.497490265813
100.487668761067
100.49091311798
100.476663110921
100.483041156334
100.474813814108
100.475127676604
100.480559985886
100.475374918303
100.492212465965
100.475338287182
100.483992931642
100.479994012158
100.480412452678
100.483309793117
100.492310779337
100.503025431858
100.504984625856
100.488185568203
100.486468588468
100.490110520238
100.495087178034
100.488101772363
100.460353123179
100.428137299445
100.42899396622
100.436029358598
100.44003465387
100.43768091724
100.428778463246
100.420176048348
100.411744032599
100.415345566048
100.399442200465
100.393720118935
100.404101157056
100.404481475248
100.415425820019
100.412596315048
100.40363711736
100.393147154613
100.411159662244
100.418351381376
100.41538748113
100.412938173457
100.409197948732
100.453691978667
100.45795977968
100.455591176807
100.412069993833
100.422092423087
100.419956587649
100.417677276664
100.414513030539
100.41146265317
100.420861837475
100.443729115472
100.453801250354
100.451216874862
100.40669447752
100.408453445462
100.389159796547
100.397221084911
100.408913183166
100.410884092153
100.401178264397
100.389855832331
100.389965194273
100.395882690474
100.411190616384
100.413770040053
100.42757006058
100.45788919204
100.491547067762
100.489261570527
100.474549919671
100.477813614061
100.478889998437
100.489773189432
100.4941202145
100.48068419959
100.481341835799
100.474411881806
100.50132694372
100.498576358295
100.501179377943
100.496405360301
100.482006741751
100.482087874868
100.495053147719
100.493022700597
100.487763585508
100.487852914345
100.490387429919
100.48881711297
100.491549079558
100.473008092246
100.480582310418
100.456979824378
100.444051871004
100.442984363448
100.445786391149
100.458598020855
100.43866915808
100.442938488356
100.440251697855
100.437143664737
100.433613661567
100.432019032428
100.462202509843
100.467344900258
100.468101751392
100.467100213827
100.456589631051
100.458999334992
100.457789384524
100.458819058572
100.458376773846
100.458272589126
100.458920329638
100.458870879576
100.459473374931
100.461960852283
100.462810714333
100.463812907384
100.464542300256
100.464990855613
100.464510823414
100.465374004471
100.466995402909
100.466775967129
100.46666871569
100.46649005845
100.464877203647
100.464111115186
100.465146625537
100.464052401097
100.463974385758
100.463215268912
100.462603695272
100.462407677654
100.461269459547
100.461425760652
100.460441494027
100.460811287518
100.460889021762
100.459430888997
100.460093342572
100.458540116056
100.458690356897
100.459518473969
100.458763942296
100.459610997355
100.459788057133
100.460640584958
100.461437989697
100.462029331303
100.462608375804
100.462908627336
100.463138444876
100.463380960292
100.46289370222
100.463316959865
100.463475761983
100.462666560305
100.463064274984
100.462790010214
100.465719986046
100.466801049982
100.467500563314
100.469583016381
100.469024256287
100.468198715721
100.469216545857
100.468482446838
100.46870727925
100.468267859996
100.468760650883
100.467886202952
100.468509584628
100.467324730668
100.467983137588
100.467452335527
100.467978635262
100.46797912608
100.468747180132
100.469239940936
100.468615029618
100.468147552698
100.467469668265
100.467890336285
100.466688864833
100.46651321067
100.466734018287
100.467479834531
100.46917188429
100.468699511588
100.467933070675
100.467723776594
100.469327279219
100.468439460148
100.467694208925
100.467515989554
100.467260434641
100.465087154114
100.46697477118
100.466070389959
100.46605602399
100.465332168623
100.465527222637
100.465733772181
100.466932268297
100.467907395285
100.467250290719
100.468236418069
100.468520306939
100.469111526748
100.468822735078
100.46934831964
100.468861327151
100.46903312476
100.468822766266
100.468440895609
100.468861003484
100.469209450928
100.467022847007
100.468166842807
100.466601496045
100.466544841396
100.46727149995
100.465029168527
100.466996045415
100.466580762553
100.468444699785
100.468251819712
100.468794278282
100.468707970244
100.468487735985
100.468166329672
100.46735185032
100.467743508124
100.467905076691
100.466980327178
100.462941156313
100.461845218196
100.462441932293
100.462800672546
100.463607289883
100.466373148153
100.468156594678
100.465942486203
100.464164588387
100.461002013086
100.455886337279
100.449349673347
100.457466706013
100.455738843457
100.455253503873
100.455297549469
100.452404473224
100.456273415924
100.460633789676
100.465853987207
100.463215704543
100.465943152178
100.464527667526
100.463904825063
100.46680246974
100.464558481776
100.464488123226
100.467357844392
100.46456189104
100.46520349024
100.467663137189
100.464772743559
100.463682475726
100.46167046825
100.46274158782
100.461309914159
100.461891316669
100.464809966452
100.463163464537
100.465657656671
100.462962782367
100.464746851659
100.463014461615
100.463473645265
100.463362656773
100.462516180862
100.462666150185
100.463292994234
100.463719551719
100.462824878213
100.462836317858
100.461657549928
100.461720157612
100.460395951909
100.460610627184
100.461652171465
100.462501082597
100.462905545037
100.463321416321
100.463743614963
100.463418662744
100.462460317005
100.462472957532
100.463489040117
100.462644817356
100.461204750186
100.462147973286
100.463341794092
100.461552069857
100.460588393416
100.463302387132
100.463982878035
100.464092306094
100.462729768983
100.460140825937
100.461814042032
100.464197121464
100.463888467053
100.462274215194
100.461269849601
100.460819670549
100.458542542696
100.458158454862
100.458679763149
100.458490172307
100.458940273015
100.459053517698
100.459255973316
100.459246681282
100.459232960482
100.458730791227
100.459557226619
100.459962846742
100.460168423221
100.460928030108
100.461512093579
100.462448577414
100.463207627152
100.463686045915
100.463690791974
100.46409840614
100.463849864749
100.463381502478
100.463350505153
100.46367305714
100.461980891043
100.461858438486
100.460823011845
100.460855559858
100.461386536936
100.460136701485
100.46024844193
100.459697614803
100.459905323939
100.460640989102
100.459564254647
100.4594725924
100.459844585079
100.459169135454
100.458984025731
100.457282615033
100.457210396634
100.45877090217
100.458938899782
100.460933694556
100.459942213854
100.459205946166
100.459521302007
100.460070024064
100.460592252335
100.461636599725
100.462888236471
100.463593992756
100.464208023793
100.463802591142
100.463906735878
100.463995313626
100.464492472112
100.464394459008
100.463910715525
100.464155906903
100.46440683449
100.464291908011
100.463941995044
100.462228530914
100.4622024276
100.462636430914
100.461845269391
100.461801300464
100.461393066766
100.461270015162
100.461427869068
100.460333799828
100.459965653894
100.459976246715
100.460655822622
100.46092421006
100.462122328009
100.462562078579
100.463299535479
100.46385371474
100.463546854012
100.46343090758
100.462899503273
100.461776565118
100.46155094113
100.462953782382
100.463507414514
100.462251960013
100.463839916959
100.460747479808
100.458202372442
100.453164862467
100.449951472569
100.45464986424
100.454599178949
100.455851478343
100.455279818419
100.455383945965
100.459054655898
100.458853184427
100.458939601108
100.458674674832
100.458831251808
100.458573021293
100.456777682285
100.453465753587
100.441811640192
100.440581387067
100.440420765893
100.441323217385
100.443645884654
100.446839933583
100.452494184392
100.449205306983
100.440791088551
100.425383276577
100.408650136769
100.433053725737
100.427860769382
100.422731152667
100.421845709853
100.424799115769
100.42747535897
100.418847502216
100.43436415405
100.4479792253
100.443151657278
100.451926682952
100.445251894536
100.443931604645
100.452045907362
100.444713868414
100.444619446389
100.4519053423
100.442823720193
100.44540814813
100.438561706829
100.447772916022
100.441188209619
100.447235928605
100.447154408524
100.450080081386
100.454240499862
100.4585247983
100.463430508428
100.46425518607
100.463041291341
100.463325312731
100.463571157656
100.460845666011
100.461134091508
100.463980948149
100.464477444182
100.46305437466
100.46304415632
100.461140525517
100.459437348079
100.450795939734
100.437951409313
100.42520490595
100.41732364272
100.411713635818
100.421796582047
100.41754531802
100.422809746821
100.416655360872
100.414177335705
100.411978130044
100.411750227838
100.413453075351
100.412028763078
100.417456194578
100.388870813564
100.375123858841
100.375402655555
100.381254112401
100.399627328705
100.400318858154
100.383301574812
100.367779774808
100.366698106438
100.338153676489
100.339329805893
100.341841173647
100.353112093178
100.344952375101
100.325834430892
100.293613018105
100.27589896223
100.311829431951
100.300697618741
100.29958530506
100.309238284686
100.338884259712
100.348219618759
100.33822230758
100.3668098127
100.389330299134
100.389599021081
100.389284709084
100.389100254279
100.388329248956
100.377961706669
100.403450360939
100.384127665501
100.396998469225
100.391628661412
100.395960201683
100.40279878165
100.414515877612
100.440085597417
100.446898165471
100.456309816697
100.463336185492
100.460002004071
100.452897088946
100.444634318403
100.420933074259
100.402533781995
100.368587685145
100.346098100127
100.333377605132
100.326783574074
100.327427528662
100.346118577968
100.336001468534
100.340753536285
100.329163283652
100.331951382414
100.330147544272
100.329227855665
100.333576718518
100.292370918991
100.280302297737
100.289580137496
100.320384706662
100.364607135379
100.394151030012
100.418944576524
100.438559513303
100.448670953579
100.454641903304
100.456695174251
100.457406772981
100.465404512819
100.498614576406
100.482133771983
100.479141704245
100.478975457576
100.477964176922
100.480591214471
100.484506742768
100.503073568583
100.490324907491
100.481622402215
100.478046390798
100.449891574404
100.433401516172
100.43283813738
100.437709151074
100.454608620926
100.442843298944
100.437756471094
100.432547327349
100.423175435252
100.424594406727
100.434284165841
100.435782657426
100.427104776431
100.428273873175
100.438459939392
100.442662786365
100.445080540345
100.457882348508
100.423558301555
100.421379910023
100.418110616836
100.409141544336
100.409802004059
100.420795715281
100.41306433837
100.412645798167
100.405946923746
100.400908086581
100.407081482838
100.412573427527
100.463090834053
100.467861571033
100.465220093763
100.471819045354
100.467774645514
100.471468118919
100.468896518356
100.471772681122
100.467155725375
100.465477428067
100.464858114257
100.465940142827
100.465333775165
100.465707000248
100.465793608986
100.465687860103
100.465320315609
100.465617934478
100.46548132067
100.466579525209
100.466771437616
100.467712223244
100.468314004451
100.468751117607
100.470274565759
100.471288829148
100.472132609368
100.472496779148
100.471747341484
100.471972892721
100.472530328127
100.471387808526
100.472240701831
100.472453129456
100.472377196808
100.472502863731
100.472135155754
100.47220565359
100.47190569005
100.472491340753
100.472131475129
100.472376030143
100.472422079618
100.472511464247
100.47262319164
100.472489963663
100.472463434655
100.47240134937
100.472289509433
100.472582808078
100.472209356832
100.473062362905
100.473240266122
100.47295944147
100.473071879791
100.473476839767
100.473728726447
100.473432740468
100.472734513985
100.472724255744
100.472764398561
100.473004461721
100.473618340603
100.473931944348
100.473499560473
100.473540916963
100.473158213351
100.472455618326
100.471821780499
100.471076717995
100.470674075832
100.470135044222
100.469900391543
100.468300238207
100.467659910056
100.468429217558
100.468701735764
100.470253202872
100.471268410474
100.471905367033
100.472624255997
100.473431527828
100.473951189269
100.47403049856
100.47358837964
100.474096256818
100.473707025527
100.473167575156
100.472823076798
100.47314421604
100.473848385755
100.474646861689
100.475076569974
100.474885931951
100.475195214066
100.475433011112
100.474986689532
100.47406056128
100.473362786905
100.472721160376
100.472442494168
100.472434555143
100.472543900306
100.472366531553
100.472347497847
100.472520962113
100.47228744999
100.472440056733
100.473072643028
100.473678044497
100.47429269846
100.474571913054
100.474228119937
100.47395653535
100.474550273258
100.475175752586
100.474440677946
100.473879639495
100.473564626689
100.472215876616
100.471787338105
100.470820249047
100.469125769828
100.468118892945
100.46801217696
100.467226602356
100.467521175905
100.467394121812
100.467162647586
100.466838218354
100.467005980284
100.46646485266
100.466281364396
100.466127747306
100.465949325809
100.466063575151
100.465703788182
100.465576311827
100.465730119254
100.465700125126
100.465791072815
100.465702910389
100.465855924594
100.465837253618
100.465889008081
100.465964176229
100.466078185651
100.466305883353
100.466506689166
100.466767530877
100.467014061744
100.466979115292
100.467209414818
100.467861406846
100.469081745411
100.470448041757
100.471979901165
100.47310548561
100.472527420725
100.473196534523
100.473352458166
100.473013506702
100.472717578634
100.472647458095
100.472550530402
100.472530865182
100.47235425146
100.472018290425
100.471798507096
100.471754505612
100.471975134687
100.471659062942
100.471776762979
100.471580472696
100.471603955525
100.471790082678
100.471989957943
100.472448760855
100.472539134626
100.472311400393
100.472192088619
100.472073548904
100.47160328663
100.472370065689
100.472482353018
100.471786222015
100.472059616054
100.471384822601
100.471460976976
100.470264976634
100.469071381425
100.468003431279
100.467418433271
100.467300453203
100.466660365037
100.466633182618
100.466437462493
100.466305644686
100.466144313192
100.466253307
100.466195426211
100.466194955834
100.466092856748
100.465793536455
100.465955100711
100.465951350312
100.465954296756
100.46571181825
100.465684551046
100.465553646207
100.465675262655
100.465840534392
100.465686070263
100.46576515897
100.466010228387
100.465928894367
100.466082112415
100.466073738094
100.465839615241
100.465831836523
100.465609414737
100.4650616545
100.465184873858
100.464958697865
100.465344557808
100.465527949742
100.466842915954
100.467361309755
100.468009617335
100.46878426192
100.469174464781
100.470188639094
100.470826928154
100.471275481505
100.471726123803
100.471265531388
100.471745872604
100.471748999417
100.47086437361
100.469918977665
100.468053894662
100.466853816752
100.467580429672
100.468949948945
100.469856400638
100.470590858713
100.472756489693
100.471160902371
100.470603950474
100.4696127856
100.468930927617
100.47067792673
100.471664875469
100.471554756178
100.47140626963
100.47181289001
100.472327998737
100.473611743841
100.4721490858
100.471989088485
100.471832144135
100.472070483493
100.472158402099
100.472455000091
100.472992552982
100.473415765394
100.473057225116
100.472458874365
100.47210965732
100.471930012601
100.47229447033
100.472140775373
100.472142673887
100.472109538911
100.471877882366
100.472233988662
100.471450230428
100.47081121164
100.4709628605
100.47052397879
100.469362671902
100.467466335531
100.46614997456
100.462772500885
100.463037080805
100.463747347688
100.46400121527
100.46344174689
100.463988621401
100.464528299757
100.466671508315
100.466557520868
100.465549641486
100.464837037789
100.465121086496
100.463684062452
100.464244609693
100.462886660115
100.461938261392
100.462618447444
100.461178187438
100.459731073687
100.460106995824
100.461504032941
100.462214183544
100.462713484201
100.462766759408
100.462539847203
100.462884875773
100.464312125551
100.464856780289
100.464710471544
100.464439329909
100.46407051846
100.463470639071
100.463021370145
100.463305271984
100.463128471808
100.463469982717
100.463443934201
100.463113072016
100.463321810987
100.462922838753
100.462806048499
100.462722480805
100.463003031786
100.463431381009
100.463582358807
100.464357740102
100.464913669568
100.464922201399
100.464506530649
100.463533928094
100.463138043678
100.463288370568
100.463328909139
100.464073711356
100.463706552007
100.463067016248
100.46453738997
100.46444095994
100.464282448791
100.464476355375
100.465361254681
100.465038897515
100.464541094341
100.464085331153
100.463923555593
100.464266988214
100.46454003882
100.464368276364
100.464501132153
100.464686212131
100.465451310472
100.465829827986
100.46563456279
100.465271328752
100.465147806576
100.46621261651
100.466210282314
100.46594196605
100.466095736785
100.467746731818
100.468027527301
100.467803950599
100.465902523314
100.466005660125
100.468278795683
100.469396857248
100.468875911213
100.468176308376
100.468233361071
100.467344589046
100.465387559702
100.466448189602
100.467925620433
100.469302124788
100.470335587474
100.47060215047
100.469613579522
100.470588680671
100.46923287154
100.468028699285
100.467279745144
100.466679498324
100.466720805459
100.467737440474
100.468329722453
100.467456757881
100.466160484015
100.46446323211
100.464842750576
100.460968509629
100.460607872325
100.459723660639
100.4597217237
100.459705218161
100.459170447513
100.45986789561
100.460671748295
100.460733415106
100.461475101153
100.46286030892
100.463547752339
100.464690400042
100.464531095621
100.464717221234
100.465055822442
100.46577184809
100.465931440409
100.466740689674
100.466522679133
100.466145293018
100.466292541693
100.467619691256
100.467830548159
100.467233155892
100.467139652961
100.468925945191
100.46958485716
100.46921690043
100.469232198263
100.470064114008
100.469622708999
100.470139113507
100.470990065374
100.471163914981
100.47119879601
100.470565145267
100.470514720461
100.469903337964
100.468692872338
100.469427155673
100.467821571665
100.466163185238
100.464929606522
100.464632719191
100.46500093633
100.462131235089
100.46429783391
100.463337398518
100.461399759923
100.459647868419
100.458627170125
100.457945299303
100.457682864562
100.457461900521
100.457335429158
100.458354568323
100.461367605586
100.470103124919
100.475081479402
100.498149242849
100.494572507176
100.458015708359
100.422553484748
100.38207846558
100.35972857753
100.374706131302
100.37203354494
100.37017329247
100.370466728414
100.371267302386
100.37209843236
100.373165639538
100.374583666932
100.376220196943
100.377805005582
100.379098128469
100.380005005474
100.380491248853
100.379096077508
100.377560444698
100.375902278785
100.374223321071
100.372675451875
100.371339691096
100.370231817202
100.369301085002
100.368485335088
100.367717865536
100.366984568197
100.366350570816
100.365983806318
100.366155505954
100.367101459801
100.368851449807
100.370831864769
100.372345474298
100.372730875461
100.372602752016
100.372608585885
100.372576387394
100.372692718568
100.372656683557
100.372693088386
100.372721936546
100.372808435916
100.372875086059
100.37322739695
100.37343009358
100.373518204104
100.37342908487
100.373264824975
100.373266068117
100.37292675097
100.372823833784
100.372736876199
100.372665185697
100.3726694518
100.372611270499
100.372564240572
100.372595876346
100.372511968788
100.372544270634
100.372406936623
100.372464145609
100.372462608791
100.372497697963
100.37249805358
100.372531331307
100.372566455068
100.372569195166
100.372807645925
100.37300436299
100.373441762231
100.373558757408
100.373571252978
100.373343357014
100.373252324587
100.373195828117
100.373134607065
100.372843059216
100.372689879574
100.372479500154
100.372453829271
100.372437197428
100.372400603112
100.372364175369
100.372394055569
100.372375134494
100.372304540326
100.372144412995
100.372378574118
100.372114273139
100.372311253729
100.372288965443
100.372332298408
100.372317561841
100.372296885066
100.372300403614
100.372362523225
100.372417448067
100.372622556154
100.372693546637
100.372872762031
100.372926486567
100.372702942619
100.372664386838
100.372601882976
100.372534174872
100.372500630788
100.372333419501
100.372313939861
100.372288406429
100.372281321101
100.372257827044
100.372276003083
100.372198590351
100.372234766862
100.372041038565
100.372129979967
100.371963002747
100.372171408407
100.372131409817
100.372200571793
100.372185912255
100.372207698465
100.372214298526
100.372240513913
100.37220110992
100.372294350565
100.372287488286
100.372359601483
100.372350181658