/*--------------------------------*- C++ -*----------------------------------*\
| =========                 |                                                 |
| \\      /  F ield         | OpenFOAM: The Open Source CFD Toolbox           |
|  \\    /   O peration     | Version:  v1612+                                |
|   \\  /    A nd           | Web:      www.OpenFOAM.com                      |
|    \\/     M anipulation  |                                                 |
\*---------------------------------------------------------------------------*/
FoamFile
{
    version     2.0;
    format      ascii;
    class       volScalarField;
    location    "1.5";
    object      p;
}
// * * * * * * * * * * * * * * * * * * * * * * * * * * * * * * * * * * * * * //

dimensions      [0 2 -2 0 0 0 0];

internalField   nonuniform List<scalar> 
80571
(
100.26081429864
100.260397475499
100.259857012399
100.262747471449
100.267206732277
100.267234120297
100.267630565193
100.268328817985
100.266156953533
100.266211650513
100.266403016875
100.266285855544
100.266395861157
100.266572038521
100.26632400493
100.266177953166
100.268341896645
100.267615851925
100.267216597192
100.267192334013
100.267899480873
100.268445380763
100.266168246603
100.266481700364
100.266741441476
100.266053772145
100.266053986934
100.266742402534
100.266482980156
100.266170142185
100.268451509103
100.267905019769
100.267196446403
100.267220064736
100.267618317748
100.268343414987
100.26618318909
100.266329108235
100.266574985981
100.266400822441
100.26629125775
100.26640819223
100.266218699795
100.266163460001
100.268331147784
100.267632929773
100.267237379716
100.267211020982
100.26792109586
100.268470754128
100.266181865894
100.266496154073
100.266758985437
100.266070931849
100.266071134605
100.266759296852
100.266495690093
100.266180164241
100.268465267225
100.267915852155
100.263162456103
100.263433379052
100.262787330395
100.262493770904
100.262855965246
100.263130405687
100.263130650018
100.262856296038
100.262493637633
100.262788498006
100.263436301268
100.263164975314
100.262751115164
100.263131744908
100.26385045969
100.264248794726
100.264300694946
100.264429521531
100.264054076281
100.264426985225
100.264489712716
100.264082560717
100.264392551537
100.264287288767
100.264249713361
100.263841249763
100.263134554951
100.262738209065
100.263154175977
100.263421415674
100.262773937328
100.262478793417
100.262840196282
100.263114708877
100.263114625373
100.262840000213
100.262478055492
100.262772608048
100.263419577816
100.263152356438
100.262734681482
100.263131241751
100.263837379501
100.264246265533
100.264282390787
100.264385234899
100.264076485916
100.264483280738
100.264420472326
100.264048450987
100.2644226538
100.26429583493
100.264245419608
100.263846323025
100.263128030431
100.260357506112
100.261383849151
100.259704890281
100.260350483402
100.260669216804
100.260411798718
100.260967651333
100.259074339498
100.259048652671
100.260070105612
100.260070570003
100.259048092456
100.259072898046
100.26096831794
100.260416560463
100.260491659204
100.259860669758
100.260360142496
100.261387952358
100.261554169114
100.262792735125
100.263003949977
100.261893286303
100.261793841689
100.26174365777
100.26179992321
100.262920647042
100.26275281934
100.261541062203
100.26137813714
100.260354898372
100.259853137548
100.26047782267
100.260399499186
100.260952612878
100.259057715406
100.259032410697
100.260054831661
100.260054673518
100.259031982277
100.259057258274
100.260951486221
100.260397042914
100.260476049882
100.259849370381
100.260352338404
100.261373992517
100.261538426092
100.262747949869
100.262908985928
100.261790788048
100.261736779248
100.261787162942
100.261883226719
100.262991546532
100.262787646945
100.2615532295
100.259693083403
100.25163459114
100.251967901009
100.252023070738
100.252218015456
100.252484251485
100.261369585624
100.26004449503
100.260212120889
100.260211787197
100.260042906735
100.261372014328
100.260672270858
100.260348528888
100.260400072952
100.259710978046
100.259692462438
100.25981271913
100.264199700269
100.261456653763
100.261386089459
100.264111784233
100.259805232656
100.259689127129
100.259717320887
100.26031725271
100.260390878031
100.26080987515
100.261655304705
100.262397168273
100.262266774235
100.262804693159
100.26504801261
100.265079622885
100.26366903401
100.262275825123
100.261288106261
100.260675243776
100.260389930054
100.260389515715
100.26067399573
100.261286032153
100.262272962202
100.263665634969
100.265515303135
100.265740270728
100.264233522297
100.262583876588
100.261369971559
100.260529970626
100.260026870007
100.259778991654
100.259779413197
100.260028176425
100.260532108685
100.26137289136
100.262587477663
100.264237826371
100.265743320347
100.26551829644
100.26357496836
100.263881504206
100.263699525615
100.263238350098
100.263011870375
100.262440120496
100.263221031489
100.262955105875
100.261447505259
100.25838196935
100.253060290526
100.251645034394
100.251964177177
100.252027969881
100.252217568182
100.252473379918
100.25247213971
100.25221400804
100.252022007047
100.251956852495
100.251636907782
100.251706860831
100.251696670392
100.250525316211
100.250393024752
100.250469953208
100.250334092284
100.250405006416
100.250468968089
100.250470575788
100.252485793044
100.25222136235
100.252028499103
100.251975088311
100.251642266125
100.2517029343
100.251713420784
100.250535554433
100.250393009734
100.250462036905
100.250336538928
100.25039882557
100.250454079413
100.250452309581
100.250393772931
100.25032815156
100.250452437333
100.250380566699
100.250523601128
100.25096362973
100.250972085626
100.250857398787
100.2509019529
100.250786546353
100.250828886519
100.250829308122
100.250831116506
100.250836186958
100.250409770126
100.250342048448
100.25047927862
100.250405031428
100.25053708512
100.250990943652
100.25098285935
100.250857848051
100.250895398041
100.25077287106
100.250806213516
100.25080015553
100.250797936506
100.250798258899
100.250760590354
100.250879431727
100.250838662347
100.25058024596
100.250634488306
100.250643487157
100.250605962961
100.250682519382
100.250630925101
100.250652580909
100.250645298259
100.250648909405
100.250663451128
100.250647753046
100.250797796297
100.250917086271
100.250875636877
100.250632247947
100.250672062174
100.250663773155
100.250608326668
100.250672934766
100.250604276816
100.250613609628
100.250595244771
100.250590723205
100.250601439635
100.250585376614
100.250648637516
100.249615220866
100.249551804999
100.249604182998
100.249617555118
100.249591919787
100.24966903487
100.249649672649
100.249671267656
100.249687419383
100.24969355343
100.24968745414
100.249675899979
100.249704118314
100.25070514446
100.250870124458
100.249818659804
100.249631990268
100.249662010051
100.249649938081
100.249595358785
100.249653670369
100.249605481496
100.249607308987
100.249608587981
100.249600448331
100.249588899457
100.249575043994
100.248322843143
100.24836172828
100.248317183988
100.248396860602
100.248418640104
100.248384828148
100.248448471294
100.248440858329
100.248454086151
100.248495880153
100.2485053389
100.248481302849
100.248480338899
100.2485017311
100.248448417464
100.248488772923
100.248469358952
100.248386084641
100.248422548538
100.24837224427
100.248355314431
100.248370847977
100.248357977627
100.248325556111
100.246944457185
100.246987779435
100.247027212197
100.246977667571
100.247103285051
100.247136383478
100.247086440366
100.247173880164
100.247172367735
100.247148637928
100.247229403019
100.247243264039
100.247190177915
100.247234642858
100.247255728094
100.247185379139
100.24724644016
100.247217984747
100.247085861596
100.247123661937
100.247065254186
100.246995363308
100.247030414531
100.247009378873
100.245335576
100.245164270525
100.245302342775
100.245347707132
100.245248753214
100.24549283111
100.245542628193
100.245423236806
100.245592600335
100.245596688237
100.245485508584
100.245675185263
100.245694738271
100.245550791587
100.245692519519
100.245716736626
100.245572673514
100.24571371426
100.245670151646
100.245416671167
100.245500888862
100.245426884719
100.245252571647
100.245367546099
100.242961799585
100.242910311224
100.242451489229
100.242786707473
100.242847386138
100.242613607167
100.243159311936
100.243241447172
100.242892044275
100.243232467926
100.243250667844
100.242946776328
100.243423207932
100.243453386536
100.243040077302
100.243383935344
100.243417916809
100.243120961381
100.243500389698
100.243426889102
100.24287659806
100.243084767476
100.242978634031
100.242596160195
100.237544022422
100.238689652277
100.238603613972
100.237301715679
100.238193084843
100.238269413932
100.237608084113
100.239042674545
100.239183002868
100.23806325037
100.238905615287
100.238930888522
100.238118839034
100.239410747915
100.239451908168
100.23824971253
100.239134328528
100.23918412251
100.238431937581
100.239595823013
100.239462249072
100.238028317778
100.238662046907
100.238516744468
100.231812190905
100.229701590886
100.232418732827
100.232276067036
100.22929971631
100.231282628023
100.231390543738
100.229931014652
100.233079863961
100.233279206087
100.230600363602
100.232456766189
100.232482450245
100.230616317259
100.233499884844
100.233545078756
100.230772117944
100.232793976207
100.232887176525
100.231192641332
100.233914550412
100.233682982432
100.230539506547
100.23203341852
100.240923827964
100.240649163869
100.238603952701
100.240727179109
100.240486412746
100.238002611601
100.239805858299
100.239861492864
100.238615659346
100.241385325375
100.242139157212
100.239948749974
100.241661763854
100.241608418031
100.240075117558
100.242195971053
100.242198237026
100.239885801824
100.242113919145
100.242229874483
100.24098885705
100.243104025389
100.242627810814
100.239903688383
100.276874066099
100.271036631498
100.270922896327
100.275488571723
100.271007234287
100.270789749718
100.274736859923
100.269884601958
100.269730380357
100.275229121447
100.272015600889
100.27299173725
100.277613708639
100.272036854251
100.272291200342
100.277088451808
100.27276076683
100.272869569383
100.277405216167
100.272790176643
100.272734564542
100.278560675915
100.274098550552
100.273411309352
100.311798037348
100.328292932596
100.31662790521
100.326362492005
100.308711143868
100.324966319643
100.314252410081
100.325673987804
100.308154320243
100.307867090201
100.325081042512
100.313311965845
100.323371011449
100.324290945925
100.314682036557
100.326437778428
100.34400456994
100.345312119454
100.32899166301
100.311615310133
100.310160247455
100.357319145653
100.386414375553
100.373791206562
100.375934321857
100.386635993681
100.375366137035
100.363049636948
100.318110152112
100.328690107465
100.326843003935
100.310459620035
100.365372921247
100.386619782256
100.367956279382
100.366458012936
100.372387241166
100.380413720509
100.35871645783
100.315832378538
100.327361179147
100.343255092939
100.309946883361
100.310093814095
100.327643981443
100.316260812261
100.327414629907
100.31108627334
100.329377187144
100.319029331309
100.330069548625
100.312837852402
100.346636610016
100.345732249317
100.375656101136
100.383338951888
100.360608174889
100.372618059902
100.365133285772
100.364546942142
100.370780364424
100.357374235794
100.379803860823
100.370285915688
100.370065704282
100.379106448453
100.369543004193
100.362841067707
100.3630043827
100.370360740365
100.380971184174
100.398107256744
100.401745144524
100.408099595677
100.408448381546
100.405325108924
100.396957487012
100.394491540236
100.409639593794
100.415246958557
100.413872275541
100.414141064092
100.414687120463
100.414402201048
100.414127146734
100.403916868984
100.408694905797
100.404685059311
100.39573847704
100.415628521514
100.415623859894
100.415971670807
100.412029363265
100.412062078092
100.410893114831
100.401842333687
100.392551526254
100.404471548138
100.411220876467
100.412745920574
100.415639953863
100.416200581826
100.416152027825
100.416766846165
100.417117388731
100.417144361825
100.417145121439
100.41714784909
100.417169690688
100.417207471638
100.417246363109
100.417287146115
100.417343550135
100.417406427531
100.417471930573
100.417606795751
100.418011457139
100.419091253381
100.421335550025
100.42664914966
100.434989420104
100.451520232492
100.444340495727
100.399154378896
100.356313521601
100.310923871279
100.28652150087
100.301488922775
100.3022320729
100.300093841564
100.299872093394
100.300786735988
100.301872751328
100.303030565223
100.304399664756
100.305928038197
100.307399565101
100.308593172375
100.309393343092
100.309757677742
100.309084137179
100.308218432534
100.307174372505
100.305925078681
100.3043891518
100.302596975722
100.300755670784
100.299091172337
100.297770438486
100.296800493943
100.296148516917
100.295698841369
100.295374725699
100.295132066617
100.294956664621
100.294878474642
100.294947947893
100.295274962101
100.295935352741
100.297089980433
100.298812642917
100.300488456556
100.301067072608
100.301170107054
100.301162862949
100.301196406761
100.301183352447
100.301207303435
100.301243385379
100.301213694014
100.301212004087
100.301164829189
100.301032436445
100.300856228206
100.300926020154
100.301047254183
100.30121236107
100.301187062833
100.30108148268
100.301180323205
100.3012187004
100.301221682333
100.301215453096
100.301244549874
100.301252975543
100.301196193883
100.30120959904
100.301195459585
100.301177521554
100.301181265738
100.30104165677
100.300800401299
100.30113168248
100.30119417452
100.301193350645
100.301212621014
100.301207162631
100.301262274118
100.301230848668
100.301228529659
100.301232650876
100.301210604764
100.301274518527
100.301209469522
100.30129624041
100.301381361307
100.301369070924
100.301333998961
100.30125017307
100.30124294938
100.30125538698
100.301275021787
100.301230792462
100.301238660875
100.301218670009
100.301225637669
100.301101552004
100.301043545943
100.301252729775
100.3012710103
100.301260269925
100.301270411536
100.301262366188
100.301289154567
100.301296803847
100.301289686644
100.301302573459
100.301314423596
100.301414886295
100.301472500469
100.301455609451
100.301379286882
100.301226330107
100.301443973746
100.30148819164
100.301628130086
100.30173820412
100.301700160165
100.301553497769
100.301527787724
100.301468771102
100.30134536922
100.301362008466
100.301330743932
100.301298242965
100.30129366297
100.301293824705
100.301309105023
100.301277949589
100.301306341931
100.30107255488
100.300795104508
100.301211270006
100.301312311808
100.301320654291
100.301337589951
100.301353535887
100.301344260201
100.301367055525
100.301384695564
100.301404527261
100.301430400153
100.3013973166
100.301531357764
100.301604053155
100.301725191308
100.301698971282
100.301746127523
100.301677626754
100.301641136549
100.301524870502
100.301513208719
100.301465926017
100.301457394181
100.301408633401
100.301360337199
100.301393883936
100.301397891324
100.30136714935
100.301381186712
100.301186919384
100.301181263836
100.301381569273
100.301442595245
100.30142779175
100.301444158954
100.301438262668
100.301489864142
100.301522786505
100.301551122634
100.301570321883
100.301730327965
100.301837907116
100.301912581783
100.301930189922
100.301809575802
100.30198295041
100.301986897943
100.302088929224
100.302174698976
100.302117066327
100.302007995293
100.301879210486
100.301759751655
100.301598447633
100.301592582947
100.301609606311
100.301557407211
100.301598515051
100.301514191759
100.301486348477
100.301516719415
100.301358204281
100.301456703999
100.301568965475
100.301589557453
100.301544035487
100.301607573305
100.301614287638
100.301635498021
100.301614086232
100.301669908279
100.301653783866
100.301828076554
100.301960721513
100.302109688006
100.30213194729
100.302142106531
100.301987911145
100.301949460575
100.301768973182
100.3017315635
100.301664945824
100.301674071953
100.301649032158
100.301664839073
100.301684487419
100.301643031295
100.301605789252
100.301674619291
100.301412811521
100.301530623592
100.301634602589
100.301704550273
100.301666305318
100.301701660262
100.301721116193
100.301758162897
100.301725105991
100.301788027898
100.301754256852
100.301820280279
100.302083315717
100.302255976761
100.302368616011
100.302366405198
100.302448745432
100.302520815229
100.302468612621
100.302311795246
100.302131637711
100.30191116888
100.301881437461
100.301778775449
100.301774081631
100.30182220881
100.301749325594
100.301770459171
100.301822646274
100.301763488489
100.301817107821
100.301758870122
100.30157115563
100.301773149072
100.301770287784
100.301799389475
100.301861600076
100.301822599504
100.30193917625
100.301862063921
100.301957498286
100.301927950364
100.301969216151
100.302086043861
100.302276256583
100.302462337523
100.302480481276
100.302449862592
100.302282877127
100.302348832769
100.302535281282
100.302681888751
100.302616639485
100.302733873895
100.302624396179
100.302643824684
100.302635417107
100.302447669434
100.302221596629
100.302065454392
100.302018561027
100.301934169039
100.301915481299
100.301962697483
100.301902526069
100.301911474775
100.301920776583
100.301901340807
100.3018680106
100.301905333387
100.301895291755
100.301579110339
100.301925063579
100.301818985247
100.30174135832
100.301950914068
100.301910515596
100.301947757842
100.301978765209
100.301947494741
100.302004573734
100.30199163361
100.302128845575
100.302227522501
100.302258964642
100.302527129285
100.302724362798
100.302911640499
100.302849354016
100.302981150462
100.302912609671
100.302918874993
100.302888025767
100.302662504428
100.302408241586
100.302309309884
100.302144217046
100.302118805573
100.302141180829
100.302032599055
100.302090970712
100.302005032114
100.30196816274
100.302013608594
100.301939684947
100.301935300639
100.30203100022
100.301656740112
100.300850514779
100.301612542572
100.301011858594
100.300153850231
100.301089686531
100.300457303207
100.299666238075
100.298752373745
100.300149428472
100.299522819985
100.297829410685
100.296414622344
100.295488633524
100.294980675862
100.29479026037
100.294793359267
100.29493002695
100.295155493525
100.295466586899
100.295894789563
100.296510023318
100.297404653849
100.298618090466
100.300162523382
100.301893527543
100.303610765608
100.305128997373
100.306393088176
100.307459489888
100.308357256371
100.309067912179
100.309622785749
100.310275639137
100.31071723352
100.310229458894
100.309582777421
100.308736023801
100.307689972971
100.30642568479
100.304867781709
100.30304245245
100.301160387537
100.299439015903
100.29804955808
100.297023318584
100.29633559356
100.295869944931
100.295539890895
100.295296422786
100.295112545776
100.295000613225
100.295009692526
100.295216623402
100.295698137061
100.296605690085
100.298144719566
100.300015180834
100.300960482126
100.301182106604
100.301170066138
100.30119319488
100.301199480815
100.301215766032
100.301241651596
100.301228210035
100.301237348532
100.30117663231
100.301016427808
100.300757915368
100.300820506615
100.300520459253
100.300053347086
100.299365630933
100.299636225697
100.299962494663
100.300446571701
100.300404543818
100.300172581528
100.300592882519
100.300717911855
100.300886077959
100.300618232036
100.300845084131
100.301011021288
100.300641738792
100.300183616186
100.3005593413
100.300794285237
100.301090538425
100.301470697748
100.301391367243
100.301179985129
100.300922321144
100.300859827621
100.301017214935
100.301205928361
100.301216780853
100.30125477414
100.301149413346
100.301303275933
100.301256167225
100.301228883622
100.30116664325
100.301131594974
100.301111647272
100.301115463417
100.301127687503
100.301163398263
100.301189500695
100.301187859242
100.301207302239
100.301236234161
100.30121601316
100.301217150211
100.301160654513
100.301017536048
100.300953252226
100.301103691096
100.301215871203
100.301210092085
100.301241917893
100.301245725986
100.301254618317
100.301210152806
100.301257099794
100.301226850758
100.301249670972
100.301190273615
100.301048266238
100.300775341934
100.300372632592
100.300749360874
100.300428930227
100.299982443841
100.299230613298
100.29825077866
100.297129854815
100.29551395057
100.296919381164
100.297292121806
100.297895458975
100.298469429507
100.298871342263
100.299216188031
100.299911532793
100.299964547523
100.299726534652
100.299224974147
100.298750962157
100.298324303671
100.298102726879
100.298965980103
100.299457782798
100.300090761296
100.300334823095
100.30089778046
100.301109742783
100.301223739302
100.301236377696
100.30114347405
100.301151252626
100.301167864292
100.301194058166
100.30121348819
100.301252884415
100.301223823372
100.301308616609
100.301289078558
100.301355937345
100.301306150428
100.301190481144
100.30092083661
100.300544677786
100.299920220381
100.299181828387
100.299123077196
100.298087357873
100.296893199206
100.295101475074
100.293065059321
100.290226096728
100.29121945833
100.292596864879
100.293687029801
100.29462894016
100.296030974342
100.296193295875
100.295477211851
100.294799878416
100.293696011386
100.293233631492
100.295080990435
100.296418547333
100.296777443309
100.29821314949
100.299847651541
100.300527984701
100.300758918114
100.300881925986
100.301182881648
100.301210201972
100.301193682537
100.301212057634
100.301227210627
100.301286414172
100.301238230476
100.301390396102
100.301377708933
100.301465244755
100.301438727601
100.301331661709
100.301050543366
100.300683881514
100.29996748947
100.299276051785
100.298114493728
100.296971495649
100.294898451109
100.294876003244
100.292611509254
100.289468816212
100.28552137325
100.280321842194
100.260591392256
100.270674657026
100.281433469473
100.282539725097
100.286845835974
100.288133801902
100.283284482125
100.287037017469
100.289422534191
100.291252008217
100.29289619466
100.293877040994
100.295099908584
100.295196034115
100.294394680724
100.292909835339
100.291474240095
100.290005795021
100.289726056003
100.292127398984
100.294210824027
100.295150875443
100.297147321736
100.298373976652
100.300375479142
100.300825621292
100.300888160609
100.300973756181
100.30116136536
100.301137332841
100.301145257909
100.301138417134
100.301133961764
100.301129633035
100.301213209238
100.301210238391
100.301207754477
100.301225021323
100.301285107095
100.301236415798
100.301389593258
100.301378383748
100.301470696035
100.301444422688
100.30135453272
100.301045092081
100.300719577536
100.299946862967
100.299281005764
100.298112295706
100.296956270045
100.29487986774
100.29237731689
100.28915381295
100.289110789749
100.284633711315
100.279260985507
100.254665512434
100.225681986079
100.16504055043
100.183320802909
100.18920790463
100.192913357718
100.192478296413
100.199233492651
100.196507869931
100.192965711895
100.198354396354
100.2029044919
100.201045777086
100.196730346391
100.205513290642
100.200976721241
100.2013753664
100.208701953533
100.202223642881
100.201173330316
100.209155541977
100.204752963942
100.198287779807
100.20737399312
100.203977435188
100.196953136123
100.2056165647
100.202511735101
100.194971244741
100.205734736396
100.20711093367
100.204561234529
100.203825570253
100.201846566782
100.200330958393
100.199861840121
100.199988235116
100.199937003828
100.200308604554
100.200597084173
100.200607681035
100.200264276316
100.200485231768
100.200645881408
100.200718854702
100.200513352662
100.200371614645
100.200771893423
100.200469570217
100.200319138176
100.200258189447
100.200497389971
100.200600933135
100.199888417678
100.199895905381
100.200559130179
100.200466238506
100.200221038352
100.200330986933
100.200474675551
100.200778287955
100.200371435437
100.200514267618
100.200719365109
100.200646712839
100.20048695061
100.200267000971
100.200610141526
100.200600775102
100.200311662137
100.199937958154
100.19998548239
100.19986252565
100.200335154646
100.201308471064
100.202326922959
100.202342621453
100.201300142986
100.201781223568
100.202709180513
100.202725457787
100.201799113656
100.201858239596
100.201691148725
100.201272576666
100.201878728953
100.20208250722
100.200735985183
100.201240397011
100.200978663351
100.201147202541
100.201593137117
100.200683748739
100.201332746266
100.201862339604
100.201982413927
100.202568478018
100.200759514705
100.201735602997
100.201131003307
100.201033733219
100.200602306687
100.201172145097
100.202997794246
100.201663047984
100.200372440795
100.201597222825
100.201580480427
100.200348983549
100.201153189184
100.200599407397
100.201027433623
100.201138888812
100.201734418282
100.200751774784
100.202571617303
100.201977879048
100.20185598423
100.20132963045
100.200677893669
100.201590446386
100.201144915702
100.200973965137
100.201236238765
100.20072860517
100.202080681562
100.201878439489
100.201271182848
100.201682599911
100.203680984642
100.203117163455
100.203959172651
100.201504580711
100.200079021125
100.203937614407
100.203134873201
100.202565832757
100.203223777376
100.201969839684
100.20286769808
100.200244188203
100.205932959808
100.205196300577
100.205537398682
100.202008675606
100.201174383296
100.201165804179
100.202001535059
100.203823213037
100.203693373671
100.20312785699
100.203234608764
100.202575543892
100.203138202572
100.202985119564
100.201070022779
100.202011410608
100.203186885349
100.204192425503
100.202368491072
100.202697861138
100.203503515317
100.204517714248
100.202056394026
100.201488152556
100.202001151297
100.202082582252
100.202077351293
100.201562806912
100.20185430513
100.202624044913
100.202618881981
100.201843049691
100.201544728665
100.202071209134
100.201997717087
100.20204884918
100.204525347134
100.203498599533
100.202692508422
100.202357931758
100.204200814803
100.203200692055
100.202017472552
100.201067586843
100.202996503786
100.202192638481
100.200980110044
100.201757078102
100.201531319046
100.202527054971
100.200975563362
100.200573493029
100.202808693823
100.20313718368
100.203301997487
100.202934344985
100.204010191764
100.202187206842
100.201725638657
100.203972767731
100.205047393496
100.205088244719
100.203949287367
100.204798537704
100.201353221571
100.202434706639
100.204477011832
100.203708225734
100.205357564949
100.2045306049
100.205486850751
100.204627630825
100.20112190372
100.202050725401
100.201422057122
100.199479121543
100.193019081222
100.193687737551
100.187761214626
100.191280988574
100.178549771747
100.172944209809
100.176625051404
100.182295674827
100.162637204971
100.236073950409
100.258404323653
100.222408177379
100.250686608007
100.27008044243
100.278104567636
100.283776424544
100.283683656073
100.278843724974
100.271931258317
100.279640728862
100.283664296346
100.286470278292
100.288760231444
100.28683645164
100.289990721588
100.291577539494
100.293032856904
100.294040385035
100.293913965906
100.29239530899
100.291015378481
100.290710913108
100.29215490099
100.293427048759
100.294063368502
100.294944793913
100.293026415665
100.294537625877
100.293245094756
100.292433288331
100.292166244068
100.292069016384
100.292578231959
100.291611095976
100.291539097628
100.291924249272
100.29276656633
100.290962014677
100.293774934322
100.294181015119
100.294806170132
100.295715528624
100.297510545868
100.296801096833
100.295845761545
100.295040647374
100.294077907843
100.293104614426
100.292267380507
100.291128910269
100.293291415479
100.29222620138
100.291834773841
100.29234599005
100.291672534067
100.292490491813
100.291780987489
100.295656397519
100.296384376199
100.297077285788
100.296851755661
100.296572831019
100.296770978687
100.298766300157
100.300674873991
100.299363769851
100.298742688734
100.29924894682
100.295130755524
100.294660589831
100.295835260385
100.297516048107
100.296736707416
100.299361734708
100.297436475977
100.297818526188
100.298315837725
100.297627677635
100.296930859314
100.296217904392
100.296014450436
100.296449277444
100.295640799915
100.294584937334
100.293558258097
100.292625420999
100.292942901412
100.291873810387
100.290825657762
100.291811193473
100.290428751737
100.290618996792
100.290854189372
100.291958725239
100.293843972348
100.293694371989
100.292156827834
100.292970018097
100.292342422831
100.295103162781
100.294030482032
100.29389021684
100.294280010412
100.295257774876
100.297352964383
100.295038095285
100.296957592095
100.298145297271
100.300226624451
100.300895720313
100.301824403853
100.300837462306
100.300249270192
100.300241499304
100.30165911657
100.301200090628
100.300127687082
100.300228276832
100.297971401434
100.299422703723
100.298276246464
100.297322796936
100.298868987699
100.298210762168
100.298597789309
100.298171265263
100.298277181252
100.297961395177
100.299892551764
100.300401940284
100.301276024409
100.301770753799
100.301854798277
100.301917542404
100.301685908738
100.301716354168
100.301200049553
100.300813362738
100.300202317443
100.299337501871
100.298334858963
100.297162719177
100.29630950866
100.29581238368
100.295673240668
100.296384802927
100.297747653912
100.29953070467
100.300826818776
100.300787537102
100.300784756021
100.301210652889
100.301202201615
100.301185807997
100.301204718118
100.301248140067
100.301219571908
100.301310179226
100.301291885266
100.301365082847
100.301315725078
100.301219899398
100.30092149003
100.300588045891
100.299897264597
100.299181845638
100.298014147161
100.296847001555
100.294847804146
100.292571320234
100.2895110016
100.285617926341
100.28056786751
100.260930587621
100.254984161769
100.22596449412
100.164601870023
100.183141154688
100.189106670851
100.192848209666
100.192449679809
100.199093372976
100.200989662068
100.196745590547
100.205598998747
100.200959786891
100.201390452395
100.208679361422
100.202240393889
100.20118414655
100.209145251238
100.204755596592
100.198307654094
100.20734731666
100.203987312569
100.196953714083
100.205613037186
100.20252325874
100.194970364482
100.205926763062
100.205180967083
100.205588691808
100.205688028442
100.204587534978
100.207144045079
100.201498633694
100.20396711616
100.201949173191
100.203940200009
100.200081067811
100.200983713161
100.202189370661
100.203286232069
100.203988952356
100.203132395235
100.202435351104
100.201081990824
100.201427311757
100.204039168623