/*--------------------------------*- C++ -*----------------------------------*\
| =========                 |                                                 |
| \\      /  F ield         | OpenFOAM: The Open Source CFD Toolbox           |
|  \\    /   O peration     | Version:  v1612+                                |
|   \\  /    A nd           | Web:      www.OpenFOAM.com                      |
|    \\/     M anipulation  |                                                 |
\*---------------------------------------------------------------------------*/
FoamFile
{
    version     2.0;
    format      ascii;
    class       volScalarField;
    location    "1.5";
    object      p;
}
// * * * * * * * * * * * * * * * * * * * * * * * * * * * * * * * * * * * * * //

dimensions      [0 2 -2 0 0 0 0];

internalField   nonuniform List<scalar> 
79587
(
100.071862596358
100.073807162611
100.070431443151
100.074778450552
100.081820096641
100.081935635301
100.079891103135
100.080415915345
100.080528921237
100.080903079015
100.081190289331
100.081002362951
100.082880590459
100.082568582117
100.084906323818
100.08486399648
100.081546030133
100.076899136511
100.07588106966
100.075877922443
100.076868034864
100.076584812999
100.075803160185
100.077348045859
100.083757172941
100.083655695692
100.077999253667
100.07633078286
100.076304324002
100.075487543433
100.07536049534
100.076428827381
100.076340686396
100.077955951182
100.083419153044
100.083323090251
100.07714885501
100.075764350745
100.076574070878
100.076645165016
100.075742079985
100.075746843425
100.076814380786
100.081379044588
100.084522323905
100.084378700727
100.077480321695
100.077028181115
100.07474180383
100.074032975808
100.074160496231
100.074027800558
100.073434951956
100.072113078424
100.073230099289
100.074547436482
100.074646041041
100.073738916331
100.072772870688
100.07154859309
100.071218952587
100.071809085547
100.071732846724
100.071057211946
100.071559255931
100.072754305783
100.073584160521
100.074669497434
100.074745127499
100.073330061016
100.072251918551
100.073606142954
100.074099435366
100.074204168364
100.073990867146
100.074696102389
100.077234753422
100.077956924201
100.075547353613
100.078448785317
100.081363952391
100.082715475199
100.080393072174
100.080202536196
100.081594977109
100.079876342323
100.077514969719
100.073285109583
100.078562278283
100.067331935023
100.056330447416
100.062099334526
100.063195539886
100.074139798142
100.06981041371
100.070439553951
100.072763931923
100.070888550766
100.069406395147
100.068821122683
100.071541165271
100.073357936893
100.069217172991
100.068454991378
100.070653450892
100.067391976391
100.06628029633
100.067511326749
100.067512729061
100.066325763759
100.067401562845
100.070595114681
100.068326768326
100.068761627533
100.07340012031
100.071975813902
100.069107476066
100.069547439662
100.070935544127
100.072755736015
100.070341176292
100.069648319198
100.074397979039
100.074422709347
100.071404039135
100.074516133316
100.080727430897
100.0854158884
100.078359912172
100.078303333296
100.083108831202
100.09905213805
100.068749782738
100.069270847062
100.053580479699
100.0265954657
100.027532500101
100.023358907859
100.023658666156
100.029946750721
100.061365174342
100.072571946201
100.06827738099
100.068017674007
100.074709335109
100.062928073689
100.063623896705
100.063456649992
100.063687108462
100.071443823698
100.0669810885
100.066963201088
100.071380623333
100.063704636463
100.06351783529
100.063654157194
100.062785701251
100.061488858762
100.06349135093
100.061449528656
100.021817308576
100.024235749633
100.025043526929
100.0246803441
100.024076264877
100.024164623591
100.025638464783
100.026252221595
100.030382698439
100.027631476797
100.028619200801
100.032130828106
100.032135178858
100.028663687293
100.027642255941
100.030187997314
100.029691980469
100.02308653998
100.023901568648
100.030471937039
100.031149174133
100.029747817498
100.029400753615
100.030676120811
100.030583438958
100.029766824138
100.030090605285
100.030318882075
100.025306860166
100.02613147475
100.027363892349
100.027319357737
100.026047533097
100.025145107726
100.026049045699
100.02538206165
100.029571660708
100.030912313281
100.031507738364
100.03166494058
100.031045222472
100.03115038209
100.031811466854
100.031694068656
100.031129387723
100.031321759829
100.031470485798
100.031477705221
100.030663797247
100.030324038681
100.030261855564
100.030516246542
100.030066818898
100.029868089055
100.031112809911
100.029378602439
100.029207137646
100.02939532338
100.029227334148
100.029520252669
100.029843649211
100.029724668156
100.029583793136
100.029370180995
100.029538957098
100.02952074822
100.029517945825
100.029398303804
100.031134243589
100.031087826122
100.031365791815
100.031266278838
100.029376259904
100.027050213295
100.027084297273
100.026977229477
100.027077322848
100.027014332409
100.026834194808
100.026859913719
100.027074016448
100.027125869032
100.027025290384
100.027170941275
100.027130865604
100.027195215231
100.027147682456
100.027124254546
100.029368519656
100.029483024987
100.027159541781
100.025231097865
100.025134010831
100.025164020629
100.025095320804
100.025196132092
100.025310062819
100.025417903605
100.025165871859
100.024937872303
100.025113367593
100.02503617618
100.025172822602
100.025148766616
100.025244873519
100.025221072979
100.025210900004
100.023493949417
100.023497426533
100.023391248287
100.023410337746
100.023344478033
100.023370450604
100.023263356617
100.023534148708
100.023414813462
100.023095498186
100.023316883395
100.023226094523
100.023364102001
100.023354410678
100.023481567017
100.023490712635
100.02167790482
100.021684481694
100.021647386911
100.021484934772
100.021479451088
100.021382540627
100.021364917106
100.021127777008
100.020801116667
100.020879427191
100.021204807402
100.021339840337
100.021281984392
100.021428439207
100.021432646042
100.021629862362
100.019421410393
100.01952590323
100.01951905136
100.019399738625
100.019145959859
100.01910507815
100.018941145334
100.018916720297
100.018875062491
100.01809316319
100.018161780925
100.018929308748
100.018907652287
100.018966504141
100.019112916224
100.019141755615
100.015860582261
100.01639712487
100.016623120421
100.016577079313
100.016243345384
100.015714093767
100.015892073489
100.015630445422
100.015332300502
100.01570546949
100.014293915147
100.014337352626
100.015791596812
100.015450422604
100.015869178407
100.016040709775
100.011490519871
100.010211181842
100.01140569664
100.012194073049
100.01203237466
100.011002313778
100.009735399938
100.01101484819
100.010800701734
100.009077434766
100.010843630766
100.007592507607
100.007665886164
100.011145267835
100.009522917086
100.011362947032
100.000235897666
99.999668042887
99.9939428833513
99.9958621980821
99.9997694599563
99.9994731386891
99.9951974127309
99.9928180344811
99.9987297284684
99.999149001646
99.9921234725412
99.9969987497917
99.9928367374972
99.9929877202799
99.9975621620459
99.9934448137491
100.001040806176
100.008813953397
100.006713400967
99.9997025929584
100.005487208355
100.007163018146
100.006635480476
100.004285654005
99.9978539541497
100.004801525246
100.006978312334
99.9994686610277
99.9963988759508
100.028529909396
100.051624471551
100.051623475815
100.029065493579
99.9949484430275
99.9950146346308
100.088233016608
100.173218893367
100.110745730699
100.111383245463
100.097166287924
100.084883620646
100.073490810817
100.069934892222
100.064434014033
100.062761390723
100.07432074492
100.066347560335
100.065637066781
100.072392610709
100.06012485859
100.061608661269
100.067447085938
100.071047059847
100.082893688416
100.095301110747
100.188263193166
100.206466202665
100.207230494444
100.189939416405
100.191294937169
100.181129877847
100.205110617719
100.245621113335
100.157094610914
100.156775786843
100.207036577949
100.170422093587
100.194723637193
100.218921550356
100.159263507983
100.158282194281
100.216994047348
100.192132880624
100.166766113198
100.202527753284
100.151930241404
100.152536825883
100.201088924657
100.178221500006
100.188550230084
100.279281445403
100.32542797153
100.296586602919
100.297174818827
100.327258465968
100.299926672175
100.281628072844
100.405330951845
100.434633521211
100.389343291813
100.406819826354
100.407296233652
100.359488065983
100.302055254761
100.331489886663
100.279005799975
100.400307960391
100.433672990259
100.390292921608
100.391151873642
100.316859203039
100.317489688599
100.246078288088
100.293749139331
100.379370099997
100.424879060772
100.391884196338
100.395869543867
100.331505137618
100.283696834158
100.323810868759
100.303364005513
100.307334049978
100.331050302271
100.241601133411
100.241024970005
100.330564706101
100.305457740669
100.30046782603
100.31956311164
100.278819819546
100.326073155568
100.311215237434
100.310873955239
100.327095170773
100.298966266798
100.297572552653
100.356585198042
100.404670749383
100.387446530463
100.402804970763
100.432544679911
100.43365220542
100.404102176023
100.375222728071
100.374671210036
100.451163769093
100.472252169872
100.463179138235
100.464383756967
100.464942812456
100.454192362538
100.438809405593
100.480114930546
100.479448819102
100.476390089537
100.472268955993
100.467887434879
100.463431358015
100.448831432521
100.446824282249
100.448968249581
100.457889585548
100.429019736943
100.42800281044
100.428562109921
100.434425260518
100.453531581573
100.45168535454
100.431847853312
100.391402490362
100.398881808586
100.377197667618
100.410539578273
100.398313445439
100.397641493908
100.407754487147
100.374333475347
100.395368970913
100.386953056127
100.390226542898
100.384819268988
100.384859230795
100.385445038747
100.404143246058
100.444547517115
100.4472755706
100.452944004588
100.46313377061
100.474434354273
100.472216010411
100.479003950905
100.479927145769
100.474510094563
100.472944166678
100.471260751233
100.476507430418
100.473574341141
100.475172527042
100.477345729888
100.479683366084
100.475253548592
100.477624094513
100.478011656844
100.475922545703
100.477463183902
100.478723447282
100.476486068107
100.477759049388
100.477399035003
100.477168714497
100.475363447835
100.472137837301
100.468874456297
100.472035786576
100.462803219617
100.479078729674
100.478558934386
100.476466700656
100.475206211437
100.480358205316
100.474702724815
100.472817094648
100.477278970585
100.459529737114
100.46014240656
100.461607097387
100.475477048472
100.469070240517
100.46687841038
100.465850246732
100.448189153925
100.442142702131
100.448101464528
100.433645013675
100.433423416343
100.447562173983
100.441436021453
100.446387615377
100.428032234749
100.447532234209
100.449097670225
100.428171509382
100.421312815387
100.421280999878
100.424283920347
100.445756661962
100.461511878183
100.467821259243
100.467704434276
100.470976221266
100.476561267116
100.474767930888
100.478324623135
100.478081707827
100.475696600269
100.47718230824
100.476524574862
100.476163578473
100.476674972833
100.475894111943
100.473804572576
100.477345398482
100.47726231831
100.476230937952
100.476775696014
100.476397493587
100.475756263271
100.475723701712
100.476310885768
100.475404800841
100.475551339306
100.475981029214
100.475933655439
100.476839270246
100.47801270619
100.476772324688
100.476896478969
100.477688985123
100.476713677484
100.476738615392
100.475345161649
100.474809753515
100.476245759812
100.477451018206
100.477323301081
100.475947127111
100.477022073382
100.47545199047
100.475893898411
100.476125810871
100.480557438316
100.4752702865
100.474434305556
100.477684592205
100.475933007106
100.478808010905
100.473391729384
100.435569672238
100.431297413866
100.43520913435
100.446876165885
100.448144715491
100.43688257533
100.434261462449
100.431553802895
100.430915165959
100.425419152389
100.430420024543
100.421760056527
100.430278921439
100.448230271737
100.435161325455
100.438702170479
100.45002083944
100.472631662506
100.471319666418
100.475807670875
100.465411031909
100.468423777614
100.470068528625
100.469992332712
100.460122654947
100.449560184912
100.446586601652
100.423491260991
100.429002079213
100.434773851775
100.434798720512
100.429455768997
100.423367692549
100.436678486123
100.42569475205
100.423462700042
100.436111480282
100.441587274801
100.427317016408
100.425672363366
100.448722755525
100.480580771515
100.48132457934
100.469334791072
100.486112277434
100.46956061643
100.497275007748
100.480157218349
100.465408956049
100.468109366439
100.467046998906
100.470019758579
100.461370262279
100.46446587263
100.449172723021
100.430014510853
100.424279168308
100.430117086086
100.409463179374
100.416571848819
100.439357373369
100.437743762232
100.430383595525
100.42546120147
100.437905845806
100.42830169409
100.425684032254
100.43327582928
100.423597271423
100.424254115082
100.424393447642
100.426628227358
100.42526551929
100.44839972761
100.479772629765
100.4806063921
100.468255570237
100.484597378791
100.480808510554
100.436861035976
100.43464687799
100.435988505261
100.430252620189
100.438057189365
100.482258110376
100.480773523109
100.47507926591
100.489214944471
100.48365317402
100.463913929697
100.443389352604
100.462714083753
100.466421095552
100.463473357076
100.462807600062
100.463802181167
100.448623237824
100.429812420746
100.43031103988
100.430472100419
100.435696428735
100.435995048466
100.432190745732
100.435980776349
100.429808200186
100.422814675879
100.426334281234
100.437519457108
100.432513864171
100.44461896231
100.433896997169
100.433519574652
100.440977604422
100.429705711178
100.430061912448
100.424066626347
100.435869886753
100.437275650165
100.441362160182
100.437962692328
100.449090452929
100.470315057742
100.469325227137
100.473249307841
100.467165086743
100.493302434422
100.478433627828
100.428076049681
100.432319710313
100.433784981927
100.467300133393
100.466184456132
100.487497118451
100.483200527538
100.48196216206
100.464434608331
100.46741737393
100.459003208164
100.444364665547
100.422231779583
100.423420224997
100.428452111722
100.43563845933
100.43627306175
100.441032740902
100.44120921827
100.434217099341
100.435279489389
100.451571147301
100.445954693857
100.44964677699
100.447973307703
100.44287688965
100.43980010478
100.440532266412
100.439735811362
100.447568581215
100.447260692388
100.439200831376
100.44222499011
100.443538083584
100.434159084864
100.425027772288
100.423340801362
100.426868731917
100.434531232544
100.44516852738
100.464978569681
100.461907344092
100.460661484937
100.475641089713
100.479710354458
100.485061614224
100.47207937412
100.46563344764
100.46478863969
100.485782492081
100.460226384692
100.456467035229
100.464018490264
100.461640249022
100.454888635125
100.470610382292
100.471780729806
100.47373070895
100.472715192663
100.470349507294
100.469924383861
100.471506895552
100.473496880814
100.47451827425
100.475627871758
100.476991626381
100.477463360373
100.477581678798
100.477298498193
100.476524290888
100.476695581302
100.478504580336
100.48731093055
100.504560538397
100.536877144403
100.532872843902
100.477422993535
100.430705954525
100.382905106797
100.355741280876
100.375715997922
100.373641660459
100.371863448237
100.372407295411
100.373391676104
100.374351635875
100.375498003978
100.376964067974
100.378641718328
100.380310205696
100.381733976056
100.382733674204
100.383182757949
100.383162849171
100.382953045789
100.382537090627
100.381905461607
100.381056810074
100.379945666369
100.378595821978
100.376989810417
100.375111503064
100.373114874541
100.371220560192
100.369607518663
100.368376639282
100.36751046443
100.366992758601
100.366788633077
100.366867773896
100.367223186291
100.367886706339
100.368924873837
100.37034671179
100.372004907265
100.373494660057
100.374060913003
100.373925627708
100.373901190629
100.37396261597
100.374109863366
100.374310167405
100.374304883463
100.374413961493
100.374455267993
100.374685593486
100.374836172919
100.375022534655
100.375209147243
100.375212023249
100.37532727661
100.375213387891
100.375197322442
100.375145885954
100.37509033387
100.375022332855
100.374948276754
100.374828005999
100.374743177394
100.374600198939
100.374461330929
100.374300885256
100.37412376603
100.373902712197
100.373865843695
100.373816272505
100.374112548119
100.37427207133
100.374438157785
100.374577225507
100.374727802996
100.374825991649
100.374932735164
100.375016396068
100.375088926317
100.375143098663
100.375206237809
100.375283202443
100.375102439428
100.374971739468
100.374723888896
100.374585016229
100.374355841927
100.374348197004
100.374238735248
100.374247918259
100.374023406684
100.373896255114
100.373705469417
100.373786662734
100.373937063679
100.374168931416
100.374173801107
100.374274747184
100.374272003928
100.374499959794
100.374653714677
100.374923752829
100.375052535875
100.37500301674
100.374864505213
100.374558155402
100.374398610529
100.374192132422
100.374196098158
100.374102924952
100.374065515817
100.37385663132
100.373744404884
100.373592961679
100.373625535879
100.373773128823
100.373958178186
100.374016668838
100.374104556683
100.374113375255
100.374307518262
100.374450246306
100.37477861018
100.374952888762
100.374875844214
100.374689656221
100.374337198467
100.374217019226
100.374036690818
100.373988598834
100.373928672592
100.373865440194
100.373699635778
100.373601953306
100.373512284519
100.373463512874
100.373615781633
100.373760989379
100.373814936322
100.373802185573
100.374049651124
100.374095407354
100.374257285549
100.374593543586
100.374792614239
100.374699267386
100.374482268537
100.374126149439
100.37394267137
100.373875573445
100.373696882215
100.373720871535
100.373665456002
100.373545625294
100.373467343168
100.373418655493
100.373320055264
100.373465471025
100.373565424648
100.373611759803
100.373609015973
100.373754322284
100.373818090999
100.373970992067
100.37433887526
100.374576075422
100.374412022254
100.374179166913
100.373802066566
100.373680303123
100.37368041422
100.373574489844
100.373530786853
100.373496544804
100.373471110877
100.373396077493
100.37334217644
100.373299836773
100.373193447435
100.373320568847
100.373389016992
100.3734173915
100.373457169906
100.373489222546
100.37360424609
100.37371813221
100.374053844362
100.374267632503
100.37411090666
100.373902132922
100.373574496638
100.373466104539
100.373390035806
100.37336417228
100.37332932897
100.373316199024
100.373256226418
100.373222297102
100.373171482519
100.373087831443
100.373184946436
100.373242685002
100.373237799014
100.373281099733
100.373313135005
100.373365320829
100.373426310783
100.373744543952
100.373951614539
100.373705549764
100.373560651778
100.373293270406
100.373280261604
100.373216968319
100.373184706831
100.373157621663
100.373170754701
100.373120395737
100.373106011532
100.373032573716
100.37297735052
100.37304489314
100.373072380988
100.373072020521
100.373103513402
100.373127270224
100.373163634831
100.373151784697
100.373409837097
100.373543028126
100.373574021581
100.373436308253
100.373343288492
100.373329938378
100.373163885334
100.373073936622
100.373060004207
100.372957368323
100.373041615735
100.372998659517
100.372977089184
100.37297525276
100.372957763028
100.372888581793
100.372820673799
100.37270169467
100.372492420088
100.372686180966
100.372848264005
100.372854353906
100.372893611394
100.372893270502
100.372909577239
100.372926301723
100.372959385682
100.372884430931
100.373024344925
100.373086495401
100.37329707278
100.37317451054
100.373177425628
100.37312216861
100.372939153873
100.372781251401
100.372792792738
100.372722854682
100.372969361642
100.37292210509
100.372891267735
100.372815589737
100.372852252907
100.372817271192
100.372818006668
100.372779415281
100.372821417041
100.372790741448
100.372779419763
100.372618526426
100.372156450035
100.372598556804
100.372767970838
100.372753623065
100.372773468912
100.372764352379
100.372745565448
100.372764623618
100.372798404414
100.372772499515
100.372839800567
100.372797949859
100.372636590931
100.372645744636
100.372566322537
100.372596270998
100.372494003111
100.37262105294
100.372746815108
100.372666008703
100.372711784562
100.372725502848
100.372725643027
100.372729205251
100.372732608207
100.372717845363
100.372714680982
100.372558509272
100.372022637095
100.37256020668
100.372704025226
100.372697963554
100.372694342312
100.372695660093
100.372685778943
100.372682171231
100.372635765924
100.372573869872
100.372658632698
100.372619763231
100.372632856455
100.372630322072
100.372838934727
100.372812190356
100.37290234894
100.372976834744
100.373053279025
100.373098634392
100.373140211377
100.37317927537
100.373230334081
100.373298593672
100.373395325676
100.373501246195
100.373595926963
100.373690424502
100.373801642262
100.373898630677
100.373999903588
100.374099815399
100.374199046782
100.374280022235
100.374495706637
100.374581117111
100.374816424598
100.374886731743
100.375103664565
100.375264580485
100.375245369331
100.375394306672
100.375317374009
100.375233047795
100.375222751736
100.375012648156
100.374899887403
100.37484828996
100.37472448788
100.374631544756
100.374534611359
100.374434384137
100.374305783392
100.374200302587
100.374089916015
100.373968668123
100.373801577338
100.373687092315
100.373554630881
100.373651597229
100.373644159908
100.373919953877
100.374093098958
100.374240331772
100.37433356329
100.374451520934
100.374591979193
100.374688690675
100.374767364545
100.374862039986
100.374962837478
100.375028892873
100.375077102012
100.375210944545
100.375338526086
100.375375478483
100.375273988829
100.375098431562
100.374787998416
100.374380622599
100.374478334667
100.374550457108
100.374863134985
100.37515594172
100.375320498363
100.375423717149
100.375376426943
100.375287088927
100.375140176549
100.374897299674
100.374572904584
100.374487380269
100.374406551008
100.374212841471
100.374069602456
100.373750361809
100.373569479121
100.373424348763
100.373265258416
100.373131641943
100.372956517215
100.372826075866
100.372687975501
100.372544163152
100.372389024572
100.372590862648
100.372890141094
100.373087440752
100.373179753731
100.373312661225
100.373452198839
100.37361003979
100.373710933332
100.373862817824
100.373984221719
100.374164375439
100.374502181743
100.374519875404
100.374690757831
100.374823995981
100.375102358003
100.374942602485
100.374860268847
100.375017208011
100.37484728699
100.374635988773
100.37411718893
100.374031304978
100.374183298075
100.374371204634
100.374372183172
100.374415185105
100.374536319239
100.374614518051
100.374698977801
100.374905556218
100.375189554332
100.375349814685
100.375448436307
100.375424807264
100.375325602667
100.375119767788
100.374901186458
100.37480998798
100.374612291757
100.374325273994
100.373944873727
100.373853924003
100.373686729484
100.373443629479
100.373237499205
100.373083738684
100.372915941038
100.372698866107
100.372492075175
100.372291626126
100.372156808964
100.371957471794
100.371778397226
100.371548057533
100.371373308907
100.371233166922
100.371142891056
100.370932923477
100.370749000156
100.3708629568
100.371280506032
100.371508104034
100.371629769562
100.371643559335
100.371770645218
100.371919371166
100.372117230445
100.372273329337
100.372466276903
100.37260430129
100.372786650476
100.372955523874
100.373189022322
100.373441129333
100.373597970099
100.373942450108
100.373972383256
100.374152637403
100.373977468895
100.374223384282
100.374459392989
100.374481739683
100.374457377488
100.374130650448
100.374227516672
100.374209662801
100.374216859134
100.374374762505
100.374519153775
100.374510393066
100.374655405978
100.374644098133
100.374770796964
100.374949608621
100.37523693458
100.375382288793
100.375493907044
100.375438099931
100.375442194135
100.375409486044
100.375246081168
100.37499594077
100.374701783326
100.374407372552
100.374045976252
100.373609963244
100.373428499404
100.373337966364
100.373129306871
100.373013573897
100.372866900988
100.372710621978
100.372556777532
100.372423764815
100.372168685428
100.372099218535
100.371889428801
100.371684252424
100.371521364515
100.371251893938
100.371006572008
100.370768240628
100.370605414077
100.370398502323
100.370611992265
100.370903594421
100.371156138142
100.371390091009
100.37163579503
100.371752150074
100.371941008606
100.372155784476
100.372363344788
100.372464620477
100.372650938852
100.372843014762
100.37307219495
100.37321406998
100.373466949167
100.373457854567
100.373249095626
100.373475299394
100.373607781913
100.373829725951
100.37373875593
100.373838697472
100.374823660424
100.374671333508
100.37454855462
100.374192481494
100.374171361156
100.374380274805
100.374400434846
100.374597436238
100.374567205087
100.374673411546
100.374680733736
100.374951396638
100.375105035753
100.375370332974
100.375533617422
100.375470132194
100.375533620954
100.37548105482
100.375450246716
100.375270963773
100.375064703074
100.374701698016
100.374461810027
100.374276725285
100.374080015948
100.373836616142
100.373552441429
100.373221484678
100.373201667822
100.373124438976
100.372974538373
100.373002681315
100.372817342937
100.372680239768
100.372586446152
100.372440489332
100.372559297221
100.372347058398
100.372138104215
100.371984499057
100.371793629121
100.371583575346
100.371298859413
100.37103109172
100.370768949015
100.370484061486
100.370148272833
100.369787657777
100.369438468686
100.3689735325
100.369247254635
100.369685378624
100.370075653666
100.370299833517
100.370531715746
100.370793135758
100.371053826573
100.371339776909
100.371518038643
100.371706022396
100.371916210516
100.37222530943
100.372418671255
100.372405800604
100.372440724827
100.372591170302
100.372740008978
100.373004911018
100.373105322036
100.373091113688
100.372962277332
100.372950146116
100.372999880507
100.372990499779
100.372990331162
100.373988956001
100.371333189447
100.370212611049
100.369529778307
100.368700994952
100.368049648197
100.367555949791
100.367131916879
100.366913843137
100.366635148785
100.366142853529
100.365519050291
100.362923689969
100.360982443338
100.365218318829
100.365713716516
100.366180440087
100.367083403664
100.36836054918
100.369155910766
100.369782878805
100.370281792498
100.370708583578
100.371098294865
100.371334394783
100.371669626081
100.372379169063
100.371101126383
100.372944954796
100.370397047963
100.373852595837
100.373678153955
100.374057320801
100.37432776295
100.374408649973
100.374441723789
100.374608591123
100.374565766767
100.374004203752
100.373088244608
100.371948713341
100.370385912948
100.368536888501
100.3674376087
100.369641392002
100.370679375491
100.368299706887
100.365056043605
100.362519775363
100.361548992483
100.3518986638
100.355028799343
100.354411553463
100.358036581458
100.359445680063
100.361316890481
100.363677572321
100.362653294673
100.359645313836
100.359911132686
100.358604122005
100.360759522176
100.36224809072
100.362685915352
100.363332574495
100.36451708912
100.364479406951
100.367297295971
100.3685757941
100.369785624853
100.371540477142
100.372408549123
100.372542987289
100.372618478347
100.372574427395
100.373077540665
100.373283430899
100.37345047033
100.37358367537
100.373699918478
100.373835123974
100.374027447501
100.374269533152
100.374123617142
100.373864452301
100.374159884221
100.374138814638
100.374269100742
100.374402291792
100.374234583485
100.374321311511
100.374500535759
100.374596900641
100.374555927034
100.374613081926
100.374854968312
100.37502222658
100.375274778246
100.375414176069
100.375538499794
100.375561153202
100.375372462528
100.37515125649
100.374865165815
100.374912190782
100.375036079296
100.375299388305
100.375442482805
100.375490438327
100.375517623513
100.375446973108
100.375311344339
100.375274511554
100.375227058536
100.375075368827
100.374853848297
100.374524250781
100.374115795542
100.373922672173
100.373750524159
100.373631847454
100.373433307591
100.373321436974
100.373126309462
100.373291198953
100.373187727416
100.373324164165
100.373264736388
100.373161053046
100.37299785504
100.373156288253
100.373008807363
100.372918551881
100.372781592237
100.372635124807
100.372460414194
100.372256181204
100.372364363691
100.372129076152
100.371918061602
100.371699984202
100.37145734308
100.371178860071
100.370899962231
100.370401704012
100.370649104383
100.370995463409
100.371264509368
100.371505682679
100.371743496989
100.37196793169
100.372202123921
100.372048676485
100.372091948304
100.372291972533
100.372476051199
100.372699954337
100.372820506393
100.372988947747
100.372838829872
100.372892920938
100.373078823171
100.37315398346
100.373125048964
100.373058122673
100.372886529809
100.372712292695
100.372441656184
100.372431661972
100.37246601932
100.372836962161
100.373088940934
100.373490940871
100.373760030569
100.374105229636
100.374420533245
100.374556106508
100.374367114701
100.374421544098
100.374508745856
100.374696840543
100.374651916929
100.374771885331
100.374821368958
100.375001707256
100.375322859829
100.375222332201
100.375341033056
100.375434203345
100.375358244411
100.37538424192
100.375334311686
100.375153382047
100.374941617011
100.374837797248
100.374585271098
100.374258286194
100.374016518839
100.373648975445
100.373546678508
100.373420739014
100.373403476606
100.373333633151
100.37338667625
100.373286668028
100.37351339402
100.373385943335
100.37356962223
100.373471676358
100.373451383975
100.373271232156
100.373372182145
100.373249153846
100.373162336883
100.373081282688
100.372984251858
100.372780784855
100.372767839455
100.372593445859
100.372407757715
100.372195003873
100.371983613741
100.3717630661
100.371493119232
100.371200363168
100.370896040787
100.370562842494
100.370161928884
100.369785164092
100.370141277467
100.370534035207
100.370737032778
100.371053987077
100.371351339523
100.371615068792
100.371843536343
100.372077684598
100.372305095927
100.372569150739
100.372757823171
100.372631625448
100.372731793785
100.372862672259
100.372945716642
100.373073302036
100.373274867381
100.373159241787
100.373164640443
100.373236953304
100.373409423675
100.373292303142
100.373253065176
100.373016831249