/*--------------------------------*- C++ -*----------------------------------*\
| =========                 |                                                 |
| \\      /  F ield         | OpenFOAM: The Open Source CFD Toolbox           |
|  \\    /   O peration     | Version:  v1612+                                |
|   \\  /    A nd           | Web:      www.OpenFOAM.com                      |
|    \\/     M anipulation  |                                                 |
\*---------------------------------------------------------------------------*/
FoamFile
{
    version     2.0;
    format      ascii;
    class       volScalarField;
    location    "0";
    object      p;
}
// * * * * * * * * * * * * * * * * * * * * * * * * * * * * * * * * * * * * * //

dimensions      [0 2 -2 0 0 0 0];

internalField   nonuniform List<scalar> 
74874
(
99.5872432694965
99.5881262438425
99.5727318291282
99.5666451744131
99.5622074089001
99.5693694823223
99.5792465831211
99.5644936687801
99.5507929106233
99.5503863335963
99.5631419346961
99.578670108934
99.5699853136547
99.5639454259399
99.5582456405896
99.5565294384376
99.5606244445761
99.5683496109016
99.5850616103427
99.5921154756832
99.5880498451233
99.5759741238125
99.5757212227564
99.5867732175062
99.5816746398789
99.5810053118117
99.5833065501593
99.5713974846798
99.5666309527992
99.5725357699142
99.5732367032055
99.567265897097
99.5720704518213
99.584295188342
99.5821974290566
99.5829901425487
99.5880169673494
99.5767775262766
99.5768693026356
99.5888978507299
99.5929842273254
99.5855996770161
99.5686875304739
99.560424510349
99.5554032011027
99.5566005568377
99.5624504726642
99.5596206462566
99.5619932893605
99.5678792729512
99.5929208770679
99.6008646481918
99.5940320534655
99.5710907306927
99.5729837461232
99.5907284529278
99.5831413383022
99.5818124757298
99.5860367378781
99.5656013354037
99.5581603974524
99.5717418045033
99.5711764389265
99.5573166549748
99.5646267946678
99.5849723732998
99.5806033269748
99.5821155063069
99.5894996425379
99.5719018356844
99.5700622503434
99.5933877446368
99.6001030906217
99.5924126174994
99.5675708341789
99.5620893727726
99.560737718849
99.5640284661269
99.5682505024235
99.5732260899543
99.5875345585957
99.5639471080223
99.5401318166811
99.5402787050457
99.564859065677
99.6074231982426
99.6103275950596
99.6026922160879
99.5986586795138
99.5971674038113
99.5956339344174
99.5952940186143
99.6012571977666
99.6138239354477
99.6175496031768
99.6096207397248
99.5967738382531
99.5965777375125
99.5976134168979
99.5990100370811
99.5975313540039
99.5914019476127
99.5819909766467
99.5740127249526
99.5777680774878
99.5775887471517
99.5733342634111
99.5810317770528
99.5903660146734
99.596463090508
99.597845390976
99.5965818766283
99.5954626706084
99.5955217832281
99.6086112120404
99.6169574555667
99.6138301700198
99.6016027473163
99.5958377076497
99.5964798012078
99.5980775068855
99.599414820518
99.6030765953757
99.6104506500293
99.607720252836
99.5951139813376
99.5950565532557
99.6444425922702
99.6441222905704
99.6354401069764
99.6200628825665
99.6141630237701
99.6121540934172
99.6123861764384
99.6168079437263
99.6235355609237
99.6351635729746
99.6317467620414
99.6180493329337
99.6093884217771
99.6067916492434
99.6019067603813
99.6006891633685
99.5992903250934
99.5954442398735
99.592648913756
99.5865392039827
99.5882420273521
99.588003836893
99.5859945905022
99.5919322554658
99.5947020558994
99.5986083600341
99.5999671876762
99.6013649497503
99.6060472112585
99.6084840321726
99.6173914085776
99.6312415352583
99.6357554681135
99.624453536866
99.6176970423525
99.6126548835291
99.6128611708589
99.615675316435
99.6218430169376
99.6364509822073
99.6454454996356
99.6450191688748
99.6469593780137
99.64608947147
99.6025968385937
99.6245634953928
99.6179689602908
99.5925040985374
99.593044463881
99.6238080511546
99.627366417303
99.6214440186052
99.612388335635
99.60792111513
99.5931690166452
99.5958238205252
99.5959706270404
99.6012997374377
99.594973339332
99.5974264857554
99.5972412689632
99.594490082473
99.601158113046
99.5956651036773
99.595676038791
99.5928274301753
99.5769012932523
99.592679376741
99.5919454077301
99.5752578094503
99.5758565481482
99.5839076959096
99.5843959747031
99.5861170989921
99.5864293847298
99.5768665133338
99.593439861077
99.5842997577794
99.5878399079829
99.5886616714217
99.5915947238359
99.5905281581273
99.5915465668941
99.5937454769776
99.5968320664317
99.5968526434184
99.5936124318015
99.5911314655217
99.5902897924575
99.5862306462491
99.5858528085855
99.5835212606239
99.5836007358699
99.5866996300466
99.5866576314356
99.5884840187206
99.5891064776022
99.5959611784698
99.5964408690901
99.597632915465
99.5996703203925
99.5943002780064
99.5958921443696
99.5954815653544
99.5955817740753
99.595883731431
99.5941887029202
99.5915496317078
99.5883836038898
99.5888864137662
99.5883301299549
99.5958051277395
99.5947011634559
99.5946797115565
99.5955918914786
99.6028016820751
99.6034146927084
99.6043172678878
99.6050009576477
99.6056606423185
99.605891701778
99.6000298307169
99.5993065916591
99.5993412101081
99.6001565793043
99.5999336179267
99.5977716379876
99.5964574632112
99.5959534485682
99.6034839324522
99.6028236107866
99.6024022317067
99.602389448172
99.6107967284859
99.6109704598838
99.6113575970835
99.6119073065985
99.6121987805815
99.612347885819
99.6125849284299
99.612780770145
99.6059113821984
99.605917977202
99.6060635014809
99.6059308626997
99.6052213910339
99.604482674227
99.6120443272927
99.6114458098615
99.6109969247846
99.6108200137189
99.6193077080585
99.6192818938153
99.6193554048962
99.619468468462
99.6196015071614
99.6196041734372
99.6195814923325
99.6196566773453
99.6197480326439
99.6197772581772
99.6128203505136
99.6127149725019
99.6125061037016
99.6123564600485
99.6196615108774
99.6196575988706
99.6195226709905
99.619384307819
99.627482706797
99.6274531381961
99.6274413959602
99.6274652206511
99.6274436845434
99.6273515577926
99.6271828201889
99.62704605115
99.6269684387962
99.6269299787789
99.6269163074019
99.6269380551853
99.619688847511
99.6196207836742
99.627006476951
99.6271494804201
99.6273371499566
99.627453688223
99.6351935277617
99.6352323021716
99.6351782154741
99.6351969231222
99.6352619163167
99.6352419536995
99.6350802752061
99.6348365981123
99.6346178845686
99.6344274758069
99.6342859771978
99.634265974066
99.6343866798251
99.6345560309517
99.634759341188
99.635016325599
99.6426879241638
99.6428999814863
99.6428797848394
99.6427216358147
99.6427450857241
99.6429233602912
99.6429585312865
99.6427648077136
99.6424879422942
99.6422274425339
99.6420066315291
99.6418112211262
99.6418075974861
99.6419582492874
99.6421674774205
99.6424010109226
99.6499410725577
99.6503073169027
99.6507037421929
99.6506591697473
99.6502900057554
99.6503001651403
99.6506726087084
99.6507143986783
99.6503442419283
99.6500073880121
99.6498251797572
99.6496565363576
99.6494870649772
99.6494957305132
99.6496192606568
99.649756727036
99.6576094718261
99.6573069013196
99.6576923915553
99.658735192053
99.659042938874
99.6582934312933
99.6582946517026
99.6590140675806
99.6586842709745
99.6576378051039
99.6572895380926
99.657624878363
99.6576560013566
99.6574493987999
99.6574694447292
99.6576975018877
99.6674948801634
99.6671163365622
99.6654252297217
99.6653297849313
99.6676092298389
99.6692469260127
99.6679824555588
99.6679893859913
99.6691901955618
99.6674349667115
99.6651705616169
99.6652807874725
99.6669427050049
99.6673372797173
99.6666240423107
99.666645964073
99.6753248061297
99.6771844111492
99.6767055056573
99.6737298390947
99.6725862365022
99.6747950442254
99.6781207081316
99.6778306134099
99.6779165068415
99.6780011068757
99.6748235838753
99.6725351315579
99.6735395384781
99.6766002978325
99.6771289715428
99.6753101947803
99.6911477239266
99.6911092673926
99.6921874595562
99.6923248603652
99.6904939256208
99.6901806465941
99.6900223107109
99.6868864594319
99.6864797853873
99.6866599784605
99.6873608726165
99.6906194703354
99.6905578597137
99.6908022932578
99.6925372439621
99.6924635534566
99.7471970965816
99.738762790664
99.7385804005467
99.7467790585812
99.7457573498178
99.737566405353
99.7387320515255
99.7461551345518
99.7439752891638
99.7816897852984
99.8205380785778
99.820615070043
99.782070928161
99.7289742309814
99.7288524804858
99.7969585118198
99.9238840366866
99.91930540298
99.9196822758914
99.8847866704091
99.8610771137361
99.8594866312764
99.7470564205368
99.7398830072902
99.7389795842913
99.7466289932129
99.8629970124908
99.8653486278257
99.9170552859928
99.8528859009756
99.8526335772753
99.9168326607197
99.8650008498228
99.8618782101771
99.9121218173706
99.8481188838264
99.8461287936931
99.9080172286114
99.8589334526827
99.8609471488258
99.8847496620459
99.9866754954808
100.089629848152
100.046555448938
100.046928154192
100.090070857196
100.084981539876
99.9868221989932
100.086392403692
100.177313338838
100.232438570854
100.264772175683
100.282103724952
100.287569706297
100.291031556278
100.293411360322
100.295119491787
100.297316022269
100.298646776836
100.299568840487
100.300369296238
100.301092070606
100.301741042375
100.302309413904
100.30279425566
100.30319736269
100.303522780779
100.303773119432
100.303947683208
100.304047295156
100.304084948231
100.304126494685
100.304187177159
100.304266808401
100.304364743166
100.304481230407
100.304616045923
100.304768305892
100.304936337715
100.305117566233
100.305308526689
100.305504954856
100.305701751984
100.305892855344
100.306070899388
100.306226832861
100.306348727832
100.306421943677
100.306428321394
100.306350978227
100.306176891258
100.305903927572
100.305575299659
100.305301426205
100.305220352023
100.305214942843
100.30516713464
100.305074951979
100.304986917301
100.3051320022
100.305158576451
100.305498554683
100.305904668533
100.306245085442
100.306466238583
100.306572988792
100.306582531591
100.306514454931
100.306390116954
100.306227303461
100.306039785032
100.305838061325
100.305630311155
100.30542306692
100.305221627465
100.305030367095
100.304852772546
100.304691472639
100.304548247912
100.304424125379
100.304319527582
100.304234467076
100.304169616902
100.304125368938
100.304101626029
100.304062394605
100.304035483253
100.304057542328
100.304096661288
100.304153224588
100.304227527594
100.304318965918
100.304428030431
100.304554659331
100.304698080694
100.304856667547
100.305027975711
100.3052086611
100.30539454579
100.305580756231
100.305761640677
100.305930539269
100.306079538205
100.306198425504
100.306274931294
100.306293675168
100.306240297173
100.306104320191
100.30588351911
100.305614865301
100.305390284873
100.305319639832
100.305321889385
100.305274999008
100.305266359569
100.305247626574
100.305240354442
100.305234312706
100.305227433243
100.305219418777
100.305215509311
100.305214352469
100.305213147114
100.305211483686
100.305207970383
100.305199401232
100.305129714494
100.305053729711
100.305004573497
100.305066172587
100.305139203228
100.305143678977
100.305147393059
100.305149398861
100.30515052517
100.305151245658
100.305157865717
100.305167244931
100.305177757736
100.305185453248
100.305205315407
100.305136230239
100.305109344212
100.305099524145
100.305088857542
100.305080865406
100.305078581712
100.305080673653
100.30508018713
100.305073544352
100.305065088186
100.304984851806
100.304962793678
100.3048926442
100.304843877162
100.304921478694
100.304925662873
100.304994276696
100.305008618039
100.305008924437
100.30499801562
100.304997959972
100.305005082091
100.305014740911
100.305024820312
100.305035027333
100.304929034039
100.304926984046
100.304918978777
100.304916450741
100.304911512201
100.30490622711
100.304887909048
100.30490170423
100.304951644324
100.304999603542
100.305075660056
100.305150239559
100.305216051547
100.305277442
100.305278606954
100.305275549179
100.305273401555
100.305270745463
100.305268088177
100.3052619908
100.305257715115
100.305258419497
100.305249264162
100.305179198441
100.305093996149
100.305000782694
100.304907689664
100.304852895039
100.304939524773
100.30503003783
100.30511373116
100.305191257198
100.305195586821
100.305121179262
100.305038744195
100.304952141492
100.304948523841
100.304860125109
100.304844128751
100.304804942171
100.304708082279
100.304593299942
100.304531604111
100.304636106751
100.304742767198
100.304755879954
100.304754926251
100.304767202206
100.304852061905
100.30490628241
100.30498525828
100.305068531339
100.305150267944
100.305214730775
100.305275997294
100.305331696614
100.305329073885
100.305327944289
100.305324747119
100.305312995406
100.305309025514
100.305320889828
100.305312941622
100.305307272342
100.305304325061
100.30529384743
100.305227083193
100.305149840932
100.305096411182
100.305167614783
100.305244179187
100.30524684083
100.305171785304
100.305074172935
100.305048732934
100.304968663878
100.3048644449
100.304739524032
100.304603085267
100.304532272705
100.304657979305
100.304789331153
100.304887986909
100.304980718114
100.304966292022
100.3049850977
100.305005185087
100.305027041186
100.305043681412
100.305056438921
100.305079991152
100.305086131648
100.305093929163
100.305171438755
100.30523830912
100.305296387673
100.305298836887
100.305291537184
100.305287104932
100.305282189684
100.305336446474
100.30533405996
100.305331142447
100.305379350506
100.305379886798
100.305381494233
100.305382586445
100.305387487901
100.305379432291
100.305345795697
100.305380276922
100.305378557281
100.305382263724
100.305381976978
100.305381424251
100.305379949637
100.305420721776
100.305419481451
100.305420095629
100.305422873086
100.305427492014
100.305429981675
100.305424578056
100.305419522305
100.305416407799
100.305370487087
100.305366420785
100.305362469894
100.305353692891
100.305353781513
100.305357183132
100.305292440587
100.305218536262
100.305135448813
100.305044672991
100.30493561748
100.30482088645
100.304739091271
100.304854225391
100.304955865669
100.305056537485
100.305137734216
100.305220391814
100.305291885805
100.305293313939
100.305294627594
100.305255054709
100.305287098608
100.305299554071
100.30532283741
100.305369873054
100.305370812234
100.30535810809
100.305351391927
100.305344421627
100.30533973922
100.305386894418
100.305381713267
100.305424098855
100.305463430938
100.305460705295
100.305457374306
100.305455801948
100.305455426684
100.305456761469
100.30545995535
100.305459897946
100.305459416665
100.305456596616
100.305455895909
100.305458517405
100.305455033846
100.305410782471
100.305412081522
100.305416742842
100.305420524502
100.305428783164
100.305433761519
100.305370082394
100.305308755247
100.305248138185
100.305190361154
100.305246341394
100.30530168101
100.305365070912
100.305358909535
100.305293448187
100.305220662406
100.305132050501
100.305122441974
100.30503289027
100.304916154714
100.304793938651
100.304677652354
100.304580197321
100.30467942186
100.304794119832
100.3049179755
100.305035383982
100.305022695741
100.305026993405
100.305008469617
100.304981550964
100.305001859905
100.305136415323
100.305168150961
100.305203340772
100.305265444849
100.305320035352
100.305320806923
100.305307710199
100.30530948863
100.305357306556
100.305406865221
100.305405751941
100.305399968319
100.30539242428
100.305434984881
100.305430396216
100.305466601016
100.305497796433
100.305494763961
100.305492765849
100.305490811863
100.305489271779
100.305488628145
100.305487250674
100.305482697153
100.305484869593
100.305490945954
100.305492125465
100.305491274325
100.305491813701
100.305489187202
100.305491634777
100.305495463153
100.305463201657
100.305468301944
100.305478487433
100.305485530432
100.305494074087
100.30550123516
100.30544777874
100.305388058467
100.305323778438
100.305248130112
100.305157890176
100.305064508142
100.304972865373
100.304891164226
100.304973793573
100.30506089906
100.305155935514
100.305245407205
100.305317060168
100.305379551375
100.305441327392
100.305447625196
100.305440395273
100.305428098402
100.30537822625
100.305332826002
100.305250587112
100.30500374324
100.304606345805
100.304331980988
100.304818919536
100.305089086497
100.305298963342
100.305444197675
100.305407400574
100.305330684348
100.305264109321
100.305162271198
100.305009660707
100.304387493479
100.303429856581
100.301786583972
100.302790833622
100.298910474492
100.30128970511
100.302127925386
100.302902710803
100.303603739144
100.304259978483
100.303765724692
100.303154416683
100.302091896193
100.299221477292
100.298896324703
100.30024426097
100.302075627822
100.303240504193
100.303829961212
100.304285327139
100.304636986169
100.304551933237
100.304964562179
100.305227058091
100.305403967645
100.305526579161
100.305610591118
100.305544477659
100.305466259774
100.305361640031
100.305345132485
100.305268951882
100.305222815398
100.305193723416
100.305191691691
100.30517485358
100.304892505707
100.301902723846
100.301725896661
100.301378160724
100.309185733786
100.304949526941
100.299176222989
100.29827374324
100.298025228475
100.29143002097
100.293854162442
100.298610668504
100.297124203956
100.301078392623
100.301965944529
100.303899406385
100.304487075135
100.304436605785
100.304274930398
100.304155968309
100.304225364907
100.304173095641
100.304035080533
100.303932983247
100.303782420884
100.303702635671
100.303841661708
100.304106747459
100.30466746941
100.305051213072
100.304574672169
100.304493020534
100.30441952055
100.304341428669
100.304277198426
100.30426016744
100.304234604142
100.304222594705
100.304251239165
100.304238700516
100.304205229675
100.304166002024
100.304141096932
100.304109387064
100.304049963595
100.303963614925
100.303902273269
100.303859557692
100.303740093059
100.303709876325
100.303848615453
100.303971166472
100.304024323214
100.304055098525
100.304079663306
100.304069596025
100.304156162725
100.304073922494
100.304098174245
100.304117343388
100.304135309881
100.304151616228
100.3041864347
100.304015442978
100.304007998267
100.303994364732
100.303984792379
100.303967413511
100.303956342634
100.303965734494
100.303970347896
100.30394271755
100.303898906886
100.303763213192
100.303816353465
100.303868984727
100.3037503143
100.303695471222
100.303641022409
100.303576871418
100.303515112794
100.303321582143
100.303295222787
100.30327542082
100.303254163493
100.303436617035
100.303511100961
100.30357273863
100.303625835288
100.303630234413
100.303732387458
100.303814658713
100.303837780922
100.303853839333
100.303862909107
100.303852788488
100.303873701385
100.303905041234
100.304010962393
100.304116173168
100.303994159011
100.303852409311
100.303758791033
100.303744205463
100.303739271769
100.303714453438
100.303682134367
100.303653273526
100.303518391278
100.303513229628
100.303507128088
100.303460927681
100.303406941529
100.30325360274
100.303255586873
100.303333642656
100.303406314369
100.303296828204
100.303207384501
100.303103563572
100.302966069118
100.302811426242
100.30253752154
100.302572459128
100.302609763832
100.302647524044
100.302840532973
100.302961026697
100.303070794496
100.303164499803
100.30319658122
100.303292148353
100.30337355217
100.303403154736
100.303542816232
100.303591907206
100.303619250314
100.303608887768
100.303632624677
100.303708623021
100.303545723373
100.303495206169
100.303473278706
100.30343886965
100.303397921902
100.303515608535
100.303580501139
100.303718921129
100.303831207613
100.303984019221
100.304137449673
100.304078032345
100.304325105548
100.304438239279
100.304455622031
100.304409793763
100.30438790682
100.304399324568
100.304388612391
100.304363209824
100.30435285725
100.3043258653
100.304342759132
100.304373704609
100.304352593016
100.304280984294
100.304243331992
100.30427118469
100.304339524065
100.304446337716
100.304470813378
100.304450142373
100.304428714877
100.304377594037
100.304319066295
100.30422440978
100.304189530042
100.304091053783
100.30402539742
100.304000241084
100.303884260086
100.303804371323
100.303749404869
100.30357053799
100.303371838668
100.303331551025
100.303545215305
100.303740079281
100.303885039463
100.30381662418
100.303872164463
100.303948495314
100.304006762125
100.304200014096
100.304225834733
100.304250396162
100.304374909129
100.304494883685
100.304510648845
100.304504252618
100.304494274768
100.304477076994
100.304474418059
100.304488459374
100.304490099671
100.304581134999
100.304575287379
100.304561832483
100.304539283526
100.304483603562
100.304449099498
100.304427811611
100.304343124317
100.304208609774
100.304143346008
100.304278811353
100.304321214849
100.304271345676
100.304339123805
100.304384733787
100.304411958279
100.304443355
100.304464611634
100.304577940688
100.3045872839
100.30457974179
100.304580846795
100.304667968818
100.304679828522
100.304668989311
100.304661129792
100.304651749302
100.304616741907
100.304642164946
100.304661274671
100.304675624355
100.304794445725
100.304792341764
100.304816716384
100.304828884707
100.304830709711
100.304830172088
100.304816971078
100.304827621428
100.304847109788
100.304907970086
100.304961870639
100.30501792914
100.304985035049
100.304892131807
100.304805208832
100.304680879882
100.304607715476
100.304569516821
100.304524610459
100.304637112247
100.304622035202
100.304614051334
100.30460192186
100.304699691526
100.304688716805
100.304673691596
100.30474553568
100.304817026974
100.304905336715
100.304991682412
100.305079262192
100.305153908512
100.305225401122
100.305285311547
100.305340646585
100.305386410313
100.305430177205
100.305466868897
100.305499083768
100.305526556444
100.30552607614
100.305521717172
100.305519656303
100.305518447266
100.305518754617
100.305519135425
100.305520494773
100.30552771843
100.30550607698
100.305530021438
100.305524974536
100.305522360829
100.305520967468
100.305521464361
100.305518445641
100.305522127663
100.305527689624
100.305530672763
100.305529152297
100.305535417235
100.305517882576
100.305528186452
100.305538298783
100.305544107497
100.305545557787
100.305547748438
100.305511820001
100.305465662208
100.305413130884
100.305351089531
100.305291792072
100.305220360057
100.305294022252
100.305347673872
100.305408011075
100.30545973273
100.30550979392
100.305506017216
100.305453466694
100.305396851387
100.30533359591
100.305257214425
100.305156902337
100.305141244027
100.305080147912
100.304975273043
100.304875425254
100.304798977195
100.304681922107
100.304800024244
100.30486822752
100.304970436892
100.305068805404
100.305061234568
100.305048954369
100.305039578993
100.305018508067
100.305010855314
100.3049286149
100.305028327756
100.305189250546
100.305243500323
100.305341539773
100.305414265783
100.305396838724
100.305407244744
100.305371483555
100.305412911222
100.305451694266
100.305444093888
100.305440446528
100.305476316235
100.30546972693
100.305501806181
100.30553010974
100.305553606567
100.305549849994
100.30554586267
100.305543757393
100.305541876366
100.305542285938
100.305543893383
100.305544657952
100.305545587022
100.305548101293
100.305550163242
100.305549262976
100.305548901745
100.305548296852
100.305545998125
100.305551328275
100.305560094711
100.305566878706
100.305584591811
100.305558497765
100.305591940634
100.305591547466
100.305598960447
100.305567153561
100.305574190632
100.305565681885
100.305566425804
100.305580273092
100.305586328357
100.305553156044
100.30551928601
100.305477009279
100.30541696981
100.305349409088
100.305285444638
100.305170262939
100.305104353764
100.305031642065
100.305126998842
100.305179859373
100.305275673883
100.305351022593
100.305417449372
100.3054716483
100.305517010226
100.305554504849
100.305558593519
100.30555461984
100.305544130773
100.305605365905
100.305607359906
100.305590501079
100.305635926714
100.30556553386
100.305459567113
100.305376027768
100.305408320287
100.306020798112
100.306088588524
100.30616013429
100.306252519457
100.306359992356
100.306458664547
100.306525574379
100.30655591439
100.306943229496
100.307456487332
100.308594316291
100.307971189526
100.307877756072
100.310487229774
100.297657211569
100.295735291581
100.294804680355
100.283010885085
100.283618829129
100.291319304225
100.289222493961
100.291995669322
100.29441055112
100.293553346328
100.293335446365
100.293597992872
100.292794704434
100.292126298304
100.293218218765
100.293677863822
100.293605403142
100.290799242715
100.290431356206
100.287198862337
100.285231714025
100.289189776534
100.292257306146
100.294664176548
100.296344603273
100.298025194934
100.295828207171
100.299197684093
100.298221198541
100.298411855226
100.299997613677
100.301151243566
100.299926288868
100.297900496335
100.29903773806
100.301499557366
100.301856898582
100.303131511208
100.30396670171
100.303980807198
100.303406351387
100.303947116567
100.304493264647
100.304575105939
100.304997591248
100.304959459723
100.305224670975
100.305411303475
100.305536285551
100.30561996772
100.305677836726
100.305659149443
100.305677068659
100.305648799208
100.305558967156
100.305436124409
100.305361600211
100.305487759766
100.305958356982
100.305957179054
100.306032757581
100.306119278311
100.306216619368
100.306329844338
100.306460708271
100.306608195913
100.306764402119
100.306977334387
100.307281316758
100.30744843137
100.307780289117
100.307861350618
100.307591514287
100.30756501279
100.307063419728
100.306544325347
100.306327636414
100.305815195691
100.305228431612
100.304734579112
100.304921263427
100.305371869706
100.305878898881
100.306301638937
100.306579348247
100.306721676222
100.306751807205
100.306691945491
100.306566568243
100.306397389489
100.306200065315
100.305987398599
100.305768410216
100.305550149375
100.305338132109
100.305136794009
100.304949642604
100.304779326926
100.304627707824
100.304495958758
100.304384716576
100.304294264147
100.304225354127
100.304178496679
100.304153615056
100.30415100789
100.304098796456
100.304059374397
100.304032309927
100.304017921333
100.304021208026
100.30404369191
100.304080486278
100.304133052001
100.30420226236
100.304287571186
100.30438963056
100.30450848992
100.304643468711
100.30479303684
100.304954787988
100.30512546617
100.305301033363
100.305476876226
100.305647819986
100.305807838039
100.305949892658
100.306065473712
100.306143799046
100.306171896258
100.306137485118
100.306031935016
100.305852792046
100.305631249774
100.305448021434
100.305486636655
100.305454729864
100.30547337394
100.305447619903
100.305451006343
100.305414526388
100.305443840391
100.305481588405
100.305480103144
100.305509406993
100.305507489837
100.305535725228
100.305557600684
100.30557583133
100.305571961427
100.305568533335
100.305565131962
100.305562968022
100.305560324976
100.305559053902
100.305560440945
100.305561669113
100.305562174424
100.305564376689
100.305569021516
100.30556958464
100.305571271784
100.305579466905
100.305567743393
100.305584607764
100.305583847448
100.30558750342
100.305594289364
100.305603145995
100.305611256867
100.305618072341
100.305625542875
100.305635132574
100.305645258829
100.305629917578
100.305599584359
100.305635317096
100.305623706944
100.305630059744
100.305649660149
100.305612162871
100.305570624648
100.305549178419
100.305524018919
100.305481419622
100.305417236886
100.305350465527
100.305300651744
100.305220111714
100.305312352135
100.305352564293
100.305419418199
100.305480701008
100.30552240036
100.305550108878
100.305571576829
100.3055769008
100.30559179641
100.305593118547
100.305602800847
100.305631844196
100.305623751028
100.305644990882
100.305659877324
100.305690571921
100.305675079318
100.305614142181
100.305608460872
100.305409354494
100.305358790522
100.305491180087
100.305864733464
100.305872282066
100.305929133123
100.305979558037
100.305992569658
100.306071258007
100.306166532681
100.306281646061
100.306422847825
100.306593722656
100.306803339943
100.307064131979
100.306957059457
100.306929859701
100.307092191447
100.307313014341
100.307663003693
100.308087780373
100.308540251141
100.308943843262
100.309051472529
100.308784365366
100.308470760581
100.308150254598
100.308050631672
100.308231941545
100.308656952806
100.309983290042
100.309100082217
100.312802246186
100.298684998581
100.294876376807
100.295687867631
100.284429186242
100.28316030171
100.289196276745
100.282928593042
100.288308350537
100.290244151187
100.291374526219
100.29097653624
100.291308042388
100.290709353521
100.289205239064
100.290673243412
100.291599141918
100.289431415721
100.287671136468
100.285660327175
100.286135511357
100.28154276086
100.279458706491
100.284163609488
100.288440476914
100.290805727966
100.292788292512
100.296891058505
100.298145690884
100.301047474286
100.302864473788
100.303482923082
100.303520122724
100.303367858027
100.303313862748
100.303283240595
100.303261681749
100.303216327546
100.30316607705
100.303113486272
100.303034532679
100.302994530096
100.302967828837
100.302896791824
100.302708570889
100.302769633658
100.302868145215
100.302792213054
100.302642638549
100.302464447816
100.302146716316
100.302254790513
100.302364115283
100.302481394174
100.302597648353
100.302707031488
100.302810572814
100.302912756345
100.302966498948
100.303065177366
100.303021236884
100.303088237582
100.3031806524
100.303158283268
100.303204114417
100.303239754404
100.303291534613
100.303436801481
100.303531251668
100.303537880467
100.303568277882
100.30362778768
100.303720319963
100.303650915931
100.303504910488
100.303414641464
100.303381844782
100.303364312149
100.303325905666
100.303271754927
100.303223615886
100.303220150212
100.303353720256
100.303506781344
100.303668594917
100.303799859539
100.303932080301
100.303910293549
100.304000566405
100.304160796573
100.303989639013
100.303776039781
100.304091827749
100.303958678781
100.303896838634
100.303850787913
100.303711449586
100.303728053499
100.303429818444
100.303831660987
100.303663366997
100.303595674178
100.303572633846
100.303481069007
100.303639378866
100.303769046897
100.30369329749
100.30352873756
100.303803106251
100.303847157645
100.303728887644
100.303571666399
100.303179311811
100.303562133792
100.30339184694
100.303398941476
100.303438021295
100.30350574093
100.303659198757
100.303797672888
100.303843308231