/*--------------------------------*- C++ -*----------------------------------*\
| =========                 |                                                 |
| \\      /  F ield         | OpenFOAM: The Open Source CFD Toolbox           |
|  \\    /   O peration     | Version:  v1612+                                |
|   \\  /    A nd           | Web:      www.OpenFOAM.com                      |
|    \\/     M anipulation  |                                                 |
\*---------------------------------------------------------------------------*/
FoamFile
{
    version     2.0;
    format      ascii;
    class       volScalarField;
    location    "0.1";
    object      p;
}
// * * * * * * * * * * * * * * * * * * * * * * * * * * * * * * * * * * * * * //

dimensions      [0 2 -2 0 0 0 0];

internalField   nonuniform List<scalar> 
79506
(
100.119898377736
100.12198385681
100.118216427087
100.12275978871
100.129715120265
100.129954929561
100.128014530982
100.128621531963
100.129010982833
100.129184548717
100.129579283963
100.12920111397
100.130881268477
100.130320433476
100.132448765384
100.132474468818
100.130412846377
100.127532840359
100.124321337009
100.123940302076
100.124041961531
100.125803654416
100.123390474314
100.124586046924
100.126527848596
100.131362857682
100.12596500749
100.124952586279
100.124197036867
100.123842528139
100.123935674228
100.124000335565
100.124828748796
100.125787540328
100.131272393209
100.126287083917
100.124303159673
100.123046196716
100.125427015312
100.123634130161
100.123570999644
100.123958951462
100.127183227656
100.130105242361
100.132056938466
100.13193143388
100.125283650983
100.12409085578
100.120703096948
100.121210713728
100.121739199378
100.121579377252
100.121671752114
100.12167943611
100.119437662878
100.122665570386
100.126357004318
100.124873835308
100.121489548861
100.120547255555
100.119522416676
100.120368507925
100.120451986747
100.119789500443
100.120669990876
100.121677416525
100.125180601213
100.126653891409
100.122932694085
100.119718458211
100.122016863476
100.122039278786
100.121888806241
100.122012355787
100.121380727642
100.120877225653
100.124403486242
100.125652606918
100.123238515069
100.126556019847
100.129731428779
100.131528619987
100.12954262073
100.128982183337
100.130051887824
100.128200263908
100.1257184477
100.121527858993
100.126979681466
100.115395265907
100.104179984458
100.110359401485
100.111974206964
100.121235025011
100.115391750293
100.116538086967
100.119259834224
100.118577785278
100.118080183113
100.118107947775
100.118075267429
100.122655146294
100.123458336811
100.118926191942
100.11928808403
100.116755454729
100.115570083517
100.116464716499
100.11647692625
100.115601994187
100.116866583207
100.119501304651
100.119206521508
100.123742322906
100.122952387047
100.118360828521
100.118467846889
100.118454949067
100.118897284397
100.119557629203
100.116729473887
100.115512111305
100.121683689363
100.122161519211
100.118715506673
100.122563412701
100.129083671829
100.134299800524
100.127746020376
100.127212045638
100.131761572474
100.14722602344
100.116112398173
100.116623163886
100.101593074155
100.074941494195
100.075797010867
100.071486318376
100.072194226583
100.078388093822
100.108617524728
100.11888273971
100.115986360953
100.115746592685
100.119896042998
100.126111575511
100.109390923713
100.109949189099
100.111368167383
100.120708319967
100.115761737392
100.115785982307
100.120827195363
100.11137611129
100.110082286393
100.109583185192
100.108170908321
100.108897263499
100.112426151992
100.110236344385
100.070320113741
100.072375012247
100.073670339035
100.073420556463
100.072344886615
100.072395890663
100.074294765899
100.074721921645
100.078834806933
100.10796940307
100.103116781083
100.086800474263
100.081020824779
100.080947980333
100.078260163606
100.079051303431
100.0735582841
100.073667291474
100.075811216567
100.079544366736
100.079454232554
100.07564696171
100.073510119352
100.078865074392
100.078081497486
100.071710462469
100.072318120816
100.078838854939
100.079295525763
100.078434778407
100.078129214412
100.079001320593
100.078868513279
100.078134946534
100.079366379428
100.079446621961
100.079921586244
100.07999603653
100.079350210301
100.074564266147
100.075373953433
100.075344393074
100.07453030688
100.073526769798
100.074476706754
100.074024720379
100.077954201351
100.079233975627
100.079864154477
100.080150641803
100.079456439583
100.079401721319
100.080117083392
100.080029495835
100.077894752219
100.077689417723
100.077776928328
100.077859515377
100.07792742336
100.077792418037
100.079618667684
100.078713953717
100.078702180205
100.079293713424
100.078845665874
100.078046016223
100.079261748643
100.077580619673
100.077488605689
100.077646734242
100.077747411354
100.077559144982
100.077608197433
100.077912031659
100.075478482575
100.075490822556
100.075436494677
100.075510317471
100.075492693705
100.075539415836
100.075471793196
100.075435336254
100.077753033332
100.079588771535
100.079918645822
100.079760257973
100.077691270191
100.075315191725
100.075300246482
100.075198860344
100.075244918875
100.075287317609
100.075265065297
100.075330922644
100.073442561039
100.073559327524
100.073574471695
100.073519672453
100.073579065727
100.073562406004
100.073584563933
100.073515513367
100.073481569423
100.073483526794
100.075439389985
100.077815134816
100.078223159543
100.075619838046
100.0736131848
100.073388889646
100.073368566567
100.073306734331
100.073370334579
100.073408421431
100.073377415956
100.071673944482
100.071743825666
100.071843852399
100.07184910399
100.07179136021
100.071848362905
100.071832637792
100.071841585504
100.071774829888
100.071744117536
100.071745348268
100.071671298515
100.071656839391
100.071622491986
100.071677256349
100.071698690132
100.069958315929
100.069928645279
100.069995544249
100.070089337597
100.070071464511
100.070022788889
100.070091529473
100.070074749684
100.070082631536
100.070030528463
100.070006185265
100.070004044575
100.069941501121
100.069934978911
100.069916158075
100.069953819733
100.068195644308
100.068263550026
100.06811229687
100.06809409422
100.068265260868
100.068234064866
100.068187945078
100.068272723299
100.068261533578
100.06827751636
100.068243871209
100.068229487851
100.068225742617
100.068172620175
100.068169634805
100.068159540785
100.066379017493
100.066373564281
100.06647290572
100.066155108701
100.066015492797
100.066271526369
100.066323084163
100.06632694535
100.066430203837
100.066429650915
100.066458511029
100.06644699736
100.066445666069
100.06644498661
100.06640491772
100.066396442777
100.064626169736
100.064580479899
100.064507945353
100.064471217161
100.064642010407
100.064524325283
100.064276230949
100.064423356288
100.064473267274
100.064583980235
100.064606041339
100.064652886523
100.06466581143
100.064679923417
100.064683545814
100.064647756115
100.0628994201
100.06285389853
100.062768190844
100.062666967208
100.062419202007
100.062824979635
100.06284901668
100.062428872583
100.062588811591
100.062627652711
100.062744379177
100.062793929974
100.062871122422
100.062916309239
100.062943108536
100.062944182152
100.061226181075
100.061151807804
100.061067001819
100.060916362747
100.060820245161
100.06050151661
100.060382828846
100.060485641531
100.060613581079
100.060713876382
100.060757470465
100.060903557856
100.060995871646
100.061123932759
100.061209344641
100.061242853975
100.059581244802
100.059509659694
100.059374540406
100.059224765551
100.0589701987
100.058836181526
100.058594489196
100.0582297853
100.058252872127
100.058535466713
100.058654002707
100.058803215384
100.05902834395
100.059182883284
100.05939273962
100.059546695329
100.057893062488
100.057922783985
100.057711884899
100.057480708262
100.057203876719
100.05679001685
100.056500378284
100.056257568616
100.05576695386
100.055692376149
100.056048448931
100.056289644805
100.056658940934
100.057000717936
100.057304916584
100.057606780136
100.055521291267
100.056076044477
100.05609761978
100.055579403004
100.0552545639
100.054715493564
100.054050381837
100.053548180493
100.053166223092
100.052202849931
100.052183648611
100.053072005187
100.053403306568
100.053979976238
100.054556533462
100.055128266653
100.052127516207
100.052629373015
100.053720022064
100.053729831574
100.052530718868
100.052189433257
100.051369302742
100.050165510234
100.049031515844
100.04856640522
100.04681909325
100.046859526362
100.048652729926
100.04902302674
100.050179281827
100.051273932047
100.045606817487
100.046518532196
100.046881619457
100.049652455279
100.049651759036
100.046823417688
100.04654471652
100.045648875761
100.043594608169
100.040829211605
100.040806329096
100.038016142376
100.037814726669
100.040685058851
100.041121485476
100.043634639254
100.033555864649
100.036436121228
100.03747289071
100.036776672831
100.043034115103
100.042963412629
100.036776837121
100.037308351492
100.036240770861
100.033456524524
100.028456798477
100.028920767587
100.025149282284
100.024761744693
100.028541249461
100.028541745811
100.051772751171
100.05281103093
100.056589571611
100.065048504788
100.059836585305
100.064975396606
100.064970511381
100.059522839806
100.06460419489
100.056031118224
100.052325001683
100.051592674844
100.040643398248
100.079971139123
100.102219201703
100.102891820607
100.080981007505
100.04051240058
100.040828478669
100.144464397314
100.231897902082
100.171494756422
100.171639483181
100.164700299778
100.151564667147
100.139764055263
100.182781528
100.216144974818
100.128280342765
100.134664767087
100.195472766532
100.153243305715
100.157038132097
100.148626884299
100.148429663001
100.156695477455
100.152545510563
100.194909532765
100.133988791786
100.127624201296
100.182114800695
100.139463040277
100.150839390329
100.164221794612
100.257719238211
100.272229161206
100.272156027096
100.257666099761
100.264964690182
100.267262294959
100.277051810808
100.307172622864
100.316685783519
100.220812126003
100.261429073076
100.353870999457
100.295109260245
100.287533073592
100.282915524627
100.306343350979
100.252551170906
100.252355586194
100.306077639613
100.282667074686
100.286972830098
100.294628611701
100.316163922533
100.306489946102
100.276374668277
100.26680412588
100.264795940393
100.347694296496
100.38801004753
100.359593302126
100.35972709424
100.388419109116
100.366543732139
100.348013891557
100.44212671966
100.468563306622
100.443190989789
100.459679389351
100.460773271489
100.420719930432
100.369001440564
100.400997707928
100.355556021676
100.446012188716
100.470438972891
100.449247043381
100.461672670014
100.481924766212
100.443336403514
100.384030134389
100.399833739844
100.42790687958
100.390737020314
100.420556470764
100.423063734698
100.38799096242
100.427843089343
100.408040418309
100.339041200582
100.338860970274
100.407876631375
100.42758929429
100.387588823861
100.422586820098
100.420016192557
100.390139412456
100.427216855942
100.399169052887
100.383285516211
100.400394769897
100.368336230274
100.365894584702
100.420234803713
100.45940355872
100.442889529734
100.454382726445
100.477004825832
100.476956714123
100.454580194252
100.430144888693
100.430043758389
100.485958082215
100.50293179327
100.498680783401
100.498668621663
100.498073411194
100.4924299871
100.482247688343
100.508986955244
100.508743842514
100.505887374348
100.505442115153
100.503503572658
100.500697422764
100.489810073515
100.488729536823
100.492101072607
100.49600689454
100.481514926981
100.505161737406
100.506450008454
100.502111496264
100.500836248125
100.501265514537
100.499547138433
100.497372183099
100.498944430362
100.485130547022
100.457501518425
100.479269354673
100.478342995716
100.471184060955
100.471381732052
100.471749283311
100.47775881751
100.456855757982
100.456764431147
100.477667653796
100.471608696114
100.471066270058
100.470867601586
100.477968363906
100.47898574011
100.457053445905
100.442869613432
100.461398611999
100.448817248351
100.460486752359
100.488605685132
100.489643505499
100.492363687617
100.498089742738
100.505922771325
100.505875206204
100.508831060079
100.508889672054
100.505935129506
100.504025201201
100.504004903718
100.508823346622
100.507314869921
100.507483699787
100.507526815444
100.507877098651
100.508374068917
100.507880294313
100.510072393105
100.51016793135
100.50979971914
100.510062064114
100.5098405063
100.510148688436
100.508841998449
100.509903430379
100.50952851945
100.507579717948
100.503973775104
100.503624156557
100.499172815768
100.510690358695
100.510137453246
100.507118618034
100.5070691918
100.503570254439
100.503882210263
100.506313668731
100.507365369926
100.50572765762
100.503331892608
100.504897618419
100.50166743723
100.501689058669
100.502200807061
100.501750812012
100.502196260775
100.50184924364
100.503579437627
100.50040234265
100.500969418407
100.496013066435
100.499336320027
100.498017853127
100.497336814893
100.497424516918
100.494593240337
100.499293508617
100.499673556016
100.485362384737
100.485332684866
100.499664325282
100.499331225989
100.494546680836
100.497436738848
100.497344898096
100.497895249507
100.49936958367
100.496034555016
100.500913151624
100.500576529478
100.499087194009
100.497354679732
100.495983323758
100.492019375096
100.499129836821
100.503931852134
100.503504516498
100.505397966802
100.508853166798
100.508359878161
100.507832260126
100.509801789692
100.509311856229
100.509844209862
100.509842188054
100.509318629349
100.508612534773
100.50859095017
100.509163817397
100.510099544506
100.510143424987
100.510130477123
100.510263022481
100.510307410839
100.510229745528
100.510401788887
100.510190297281
100.51032184758
100.510674784632
100.510784498179
100.510660606847
100.510601377216
100.510326982021
100.510217527908
100.509910581767
100.509854253022
100.509641529877
100.509900788275
100.509847542439
100.509556657616
100.51034879879
100.51109017092
100.511566117712
100.511682534841
100.511260268493
100.509178053209
100.504695476526
100.497913472441
100.495352293171
100.503326429498
100.538019295366
100.546969715535
100.495871925624
100.460026532734
100.426023704397
100.385794620035
100.362531375925
100.378419360796
100.375619248288
100.37396228786
100.374689582445
100.376058567096
100.377222282503
100.378195847622
100.379019230646
100.379639896289
100.380035466113
100.380254414549
100.380359918823
100.380415162491
100.379994119316
100.379502468061
100.378968420628
100.378423736985
100.377896780705
100.377414475929
100.37699760644
100.376653918447
100.376378537689
100.376157110412
100.375972042993
100.375808531638
100.375650637046
100.3754826358
100.375292244847
100.37506970197
100.374810008051
100.374506216759
100.374199336653
100.373929218377
100.373965836119
100.374423237717
100.374813761835
100.374916099447
100.37496438845
100.375040635876
100.375080217337
100.375152106634
100.37520810618
100.375187908244
100.375265096441
100.375173998444
100.375246887142
100.375296233748
100.37527474849
100.375188665561
100.37515443776
100.375121337108
100.374772433216
100.374579503525
100.374782721966
100.374832981137
100.374831983672
100.375057842418
100.37491601818
100.374993713355
100.375136022411
100.375172570845
100.375128116296
100.375138456743
100.375088443621
100.375011974723
100.374999712915
100.374882784588
100.374876823534
100.374767706305
100.37462894199
100.374305369007
100.373839124026
100.374372497301
100.374629868471
100.374757402638
100.37483372933
100.374960342774
100.374906665983
100.375060973782
100.375041358551
100.3750934835
100.37511067531
100.3751234399
100.375151225421
100.375106141562
100.375207293029
100.375204759482
100.375259720533
100.375321907369
100.375270795339
100.375227652875
100.375102187443
100.374815787017
100.374544875025
100.374586954461
100.374240333238
100.373624890304
100.372995084018
100.372976729281
100.373300293878
100.37348865468
100.374171147091
100.374108938948
100.373575782496
100.373544746269
100.373937019805
100.374031689769
100.374574954152
100.374562375698
100.374230014536
100.374640119507
100.374726735965
100.374959011262
100.374995295724
100.374982808673
100.374974304397
100.374966925749
100.374951434066
100.374980332537
100.375010519052
100.374990083304
100.375076008543
100.375123693156
100.375142446617
100.375254579371
100.375265258094
100.375347292183
100.375378700115
100.375374654755
100.375210111774
100.375175902488
100.375308102901
100.37536426386
100.375333341186
100.375364771436
100.37530404057
100.375334335182
100.375298250516
100.375381750348
100.375411027112
100.375425051347
100.37530913528
100.375200167328
100.374921479075
100.37454006164
100.374206948326
100.374189842876
100.374426305168
100.374501139458
100.374892385643
100.374731987081
100.375059695021
100.375174892406
100.375267472904
100.375222000134
100.375192044022
100.375220546365
100.375157831358
100.375295973823
100.375337488062
100.37533514765
100.375427961317
100.375468290438
100.375480548863
100.375358249607
100.375223110225
100.374968796249
100.374567434947
100.37425572201
100.373692326624
100.373173391211
100.373005412843
100.373012610711
100.373247966811
100.373145769973
100.373036352042
100.372203547001
100.371644256914
100.371435869068
100.37139195261
100.371617215691
100.371464285303
100.371406814178
100.371693849778
100.372070166384
100.372063654449
100.372033870255
100.371635027098
100.371844099801
100.371713773516
100.37338518987
100.374592715369
100.374658028019
100.374758138579
100.374789067312
100.374941957247
100.374985420325
100.375030252574
100.375055016836
100.375161790443
100.375202340697
100.375200753597
100.375235529552
100.375369899348
100.375362025962
100.375458376068
100.375502589401
100.375502117092
100.375374293317
100.375200647275
100.374920692001
100.374627476797
100.374287365265
100.37380797511
100.373361042658
100.373072590949
100.372518943787
100.372377777501
100.372140111807
100.371889081662
100.371658658124
100.371079244242
100.371006365924
100.370729078909
100.370419431463
100.370128598009
100.370538429343
100.370817681244
100.370593997969
100.370698780015
100.370852717479
100.370690722111
100.370914956894
100.371752675623
100.373289689348
100.37459149402
100.374686333511
100.374808189023
100.374827410148
100.375008000373
100.37506079674
100.375095055761
100.375131894595
100.375244400708
100.375305291293
100.375265903364
100.375396178391
100.375387253645
100.375481140545
100.375537296645
100.375523810831
100.37545748534
100.375163086779
100.375051826237
100.375152454609
100.375199206243
100.375352782744
100.375459710414
100.375504081327
100.375449974508
100.375463227219
100.375490818765
100.375567242034
100.375535452021
100.375481321984
100.375242952976
100.375029940371
100.374615199697
100.374415084672
100.374345568633
100.373908942314
100.373505230249
100.373219242619
100.372710186738
100.372594457638
100.372381150324
100.372220311121
100.372187581835
100.371939156108
100.371650477016
100.371329212001
100.371610911916
100.371996163101
100.37214996876
100.371818495411
100.371356609023
100.371441237927
100.371079407902
100.371117823972
100.371070651887
100.370792394128
100.370384868222
100.370667454164
100.370731879311
100.370229914042
100.370395902626
100.369786719345
100.369278003243
100.368803583295
100.368324817326
100.368768084327
100.369395032813
100.369800896274
100.369602241992
100.369658580208
100.369586225472
100.368353014641
100.366677191284
100.36617326189
100.365094139892
100.362718153473
100.363206332724
100.364594865802
100.366608951276
100.367451405955
100.366444137068
100.364519295998
100.364305973062
100.358220697807
100.356807777045
100.361482791992
100.359885430662
100.358750453715
100.356102143496
100.354733969043
100.353638096873
100.357040824922
100.360149564498
100.362079360278
100.364376031501
100.364795925358
100.366890237324
100.36865101807
100.369890199727
100.368195129342
100.368405304025
100.367863112003
100.371709400024
100.370692505299
100.369259372521
100.367802100766
100.366107851003
100.365862390013
100.366769335379
100.367662478298
100.36393338921
100.361449611079
100.361653403808
100.347802857894
100.352257769408
100.347729793845
100.353478033043
100.353359154428
100.367653923117
100.371322070537
100.373421479876
100.373795859767
100.374480924146
100.374625736867
100.37467915715
100.374805681369
100.374771839481
100.37491197708
100.374917738731
100.374996806128
100.375058778244
100.374996001016
100.374804899252
100.374569463767
100.374669332082
100.374943543716
100.374814393654
100.375002370208
100.375024313804
100.374957929758
100.374902031016
100.374908715193
100.374801743918
100.374774835522
100.374687092484
100.374620101713
100.37450467425
100.374288922601
100.373755662358
100.373232189336
100.374026984722
100.374392414673
100.374513559298
100.374618312417
100.374632334887
100.374746704958
100.374757053203
100.374839051943
100.374922583933
100.374879076313
100.375003589969
100.374888235621
100.37488640669
100.375039473237
100.375034681404
100.37498531987
100.37495642024
100.374914527473
100.374415511982
100.373998832884
100.374468947393
100.374518730009
100.37491078157
100.374786700237
100.374928588046
100.374945832757
100.374870738951
100.37489718127
100.374825643654
100.37484327428
100.374809065396
100.374678109721
100.3747158781
100.374719998755
100.374588877261
100.374524796286
100.374407859307
100.374070726478
100.373380881065
100.374268165841
100.374468518035
100.37455139052
100.374613658002
100.374706200875
100.374719738129
100.374819187567
100.374831621681
100.374875745386
100.374820602685
100.374932971962
100.374892893137
100.374729752759
100.374319288334
100.37359270836
100.374396275935
100.374368424818
100.374880397611
100.374707449094
100.37492094601
100.37493673894
100.374842199411
100.374774304751
100.374788200209
100.374801083363
100.374693243142
100.374696384023
100.374584573733
100.374567342203
100.374474646632
100.37436037087
100.374089294171
100.373463381627
100.372988188215
100.373842390798
100.374261742736
100.374424061775
100.374519031471
100.374580183371
100.374675951893
100.374662390383
100.374771217547
100.374793280252
100.374787185917
100.374837062884
100.37490950228
100.374877635157
100.374745193176
100.374978940131
100.374930894869
100.374841130904
100.374820208366
100.374934122016
100.374912596253
100.374781346642
100.374316670859
100.37489042134
100.37480424264
100.375027931325
100.37491224905
100.374942378022
100.37483826851
100.37480011942
100.374773943179
100.374778280171
100.37467678952
100.37468592513
100.374575498684
100.374552711151
100.374460439285
100.374347010571
100.373928275851
100.373242240925
100.374207811266
100.374450317317
100.374524395052
100.374577861794
100.374669611205
100.374655133807
100.374760894823
100.374795582965
100.374676124253
100.374688404794
100.37458397972
100.374561498416
100.37447587667
100.374362346378
100.374096582158
100.373416275342
100.373088374122
100.37388709687
100.374298293662
100.374439111372
100.37452745641
100.374587159091
100.374683573681
100.374664216725
100.374758247146
100.374778018909
100.374828421619
100.374963188855
100.374974838165
100.374923288814
100.374444810862
100.373861804859
100.374466091149
100.374914068621
100.374864260647
100.375041704062
100.375002739626
100.374978340941
100.3748776021
100.374828093833
100.374824842407
100.374704201232
100.374719263576
100.374601094128
100.374581568525
100.374491674806
100.374405684148
100.374038048946
100.373510083772
100.374351724816
100.374501576029
100.374566362861
100.37460905487
100.374714822787
100.374681803767
100.37480092484
100.374804494737
100.374868562751
100.375023401396
100.375037274752
100.374956928634
100.374503009813
100.37497984025
100.374939439247
100.37507001059
100.3750502173
100.375034333207
100.374934364939
100.374869027754
100.374881367682
100.374729446556
100.374761135791
100.374641755232
100.374636220642
100.374558598414
100.374478644181
100.374340750766
100.37371854009
100.373333476106
100.374236417678
100.374504608659
100.374570636141
100.374642861417
100.374667460358
100.37476179445
100.374721207593
100.374871242711
100.374827725625
100.374929138069
100.375033628149
100.375043722846
100.374972042804
100.374465082945
100.374919404965
100.374863635139
100.375009816038
100.374999375447
100.375049286179
100.374909324333
100.374939198241
100.37493926311
100.374874636103
100.374794708426
100.374753539127
100.374728940241
100.374760419421
100.374680026319
100.374634684168
100.374563892596
100.374435963634
100.374204116292
100.37356825763
100.373335232574
100.374078186105
100.374432016114
100.374561465136
100.374636805096
100.374702880022
100.374703871351
100.374793478821
100.374775907071
100.374907935941
100.374878163715
100.374954459192
100.375015548618
100.374991695657
100.374870244577
100.374357886802
100.374810024794
100.374986562969
100.375001812139
100.374939608211
100.374950184624
100.375019088769
100.375015921518
100.374909910209
100.37444094302
100.37491545836
100.374957288568
100.375065195346
100.375100577663
100.375088620071
100.374944628862
100.374977233263
100.374862098156
100.374878839988
100.374905965202
100.37478129992
100.374796037028
100.374826622332
100.374728697987
100.374716761461
100.374657283092
100.374567862205
100.374242835096
100.373846796817
100.374550167871
100.374679161125
100.374734945364
100.374754079927
100.374843721267
100.374827683634
100.374860667414
100.374917884612
100.374980664245
100.375027473721
100.375144150207
100.375207191567
100.375028313608
100.375103538642
100.375121714256
100.375003206757
100.374979396525
100.374932875002
100.375000311129
100.374869230838
100.374892949335
100.37480675578
100.374811573702
100.374761990444
100.374689071302
100.374616038256
100.374138989671
100.373996095007
100.374591390892
100.374703388619
100.374766022758
100.374830346308
100.374838309903
100.374929951158
100.374901295214
100.375021141379
100.375001648685
100.375066129788
100.375207416255
100.37522135311
100.375112294931
100.374687737387
100.375046498055
100.375157262147
100.375155720635
100.375033868615
100.375119228766
100.375242005061
100.37525572103
100.375174856512
100.374759029346
100.375050444082
100.375183704568
100.375183653836
100.375078303055
100.375035083804
100.374996120031
100.375070755055
100.374926731746
100.374929255847
100.37497292852
100.374867223164
100.374860235894
100.374801622709
100.374712026168
100.374683158703
100.374297980085
100.374225183478
100.374705948267
100.374795886026
100.374835405295
100.374890329005
100.374899074428
100.375012015528
100.374956378684
100.375123917858
100.375068880162
100.375179740345
100.375290251891
100.375292280883
100.375187152705
100.374763394178
100.375025831492
100.375186980323
100.375196931627
100.375116170152
100.375198140501
100.375236917944
100.375213036148
100.375159027372
100.374761401617
100.374105841501
100.374726752685
100.375063385436
100.375122194325
100.37515661418
100.375265816791
100.37528223552
100.375184587537
100.375183696923
100.3750709702
100.375075512574
100.375145050669
100.374978806617
100.374986580344
100.375050388278
100.3749414539
100.374936387719
100.374893469174
100.374817265871
100.374802956482
100.374472234877
100.374436799057
100.374843659925
100.374914818425
100.374946576453
100.374993591505
100.37499517252
100.375079964977
100.375054594441
100.375079438295
100.375151434632
100.375233886528
100.375193790799
100.375139043825
100.375201796748
100.37528493451
100.375224478648
100.375335199961
100.375317714156
100.375114095584
100.375197058643
100.375274475766
100.375366165687
100.375375782057
100.37520575843
100.375291191816
100.375355753169
100.375241256171
100.375237117866
100.375200598895
100.375122097657
100.375111475269
100.375070426156
100.375122005778
100.375041868204
100.375045740525
100.375013560804
100.374955251233
100.374943941185
100.374783889763
100.374785169317
100.374376892221
100.374188797777
100.374055360415
100.373862574525
100.373766106961
100.373586900507
100.37353297759
100.373318712398
100.373352039082
100.373128508644
100.373121595436
100.373051359987
100.373000413444
100.373114314012
100.372960908767
100.372981596581
100.373157665499
100.372995766078
100.373109797356
100.37335348416
100.373307575067
100.373445932575
100.373745703751
100.374370549583
100.374609324137
100.37471745912
100.374787734706
100.374887926451
100.374899573991
100.37503005635
100.374993941147
100.375034146558
100.375051039702
100.374936079291
100.374944631923
100.375088131
100.375083090333
100.375047708997
100.374979588023
100.375050976173
100.374982669305
100.374900868347
100.374477587009
100.37412672651
100.37449782833
100.374181234064
100.373653094083
100.372913138822
100.372986871406
100.373535377742
100.373673217231
100.37437119547
100.374374264539
100.373773437878
100.373053844227
100.37224139851
100.371083788327
100.372070582917
100.372407850144
100.372648832385
100.373476354404
100.373600429218
100.37325417945
100.372889360695
100.373499988903
100.374222909358
100.374403676384
100.374692255458
100.374683389699
100.374738471908
100.374716462937
100.374708371637
100.374704629856
100.374696247836
100.374686514488
100.37470073118
100.37471021514
100.374850904894
100.374855442599
100.374959652858
100.374950553927
100.374956660689
100.374966245231
100.374971074229
100.374910731181
100.375044004708
100.375029991093
100.375097049161
100.375124286382
100.375100987906
100.375012833922
100.375120180415
100.375054492318
100.375091229358
100.375089939846
100.375143423056
100.375148426592
100.375013956924
100.375038011484
100.375077251467
100.37504491218
100.375076658357
100.375116552575
100.375155473764
100.375202981731
100.375183245337
100.375243151498
100.375251100468
100.375360843273
100.375367333643
100.375451148424
100.375505719423
100.375538178785
100.375607605738
100.375559499673
100.37551466006
100.375279714938
100.375089640903
100.374719933903
100.374310006464
100.374215729382
100.374248646874
100.373912255094
100.373611619543
100.373373202426
100.372881593679
100.372785544738
100.372588791967
100.37244548378
100.372406525586
100.372240069316
100.372291319832
100.372058640229
100.37173047349
100.371386429951
100.371160021542
100.371243635929
100.37089964501