/*--------------------------------*- C++ -*----------------------------------*\
| =========                 |                                                 |
| \\      /  F ield         | OpenFOAM: The Open Source CFD Toolbox           |
|  \\    /   O peration     | Version:  v1612+                                |
|   \\  /    A nd           | Web:      www.OpenFOAM.com                      |
|    \\/     M anipulation  |                                                 |
\*---------------------------------------------------------------------------*/
FoamFile
{
    version     2.0;
    format      ascii;
    class       volScalarField;
    location    "0.3";
    object      p;
}
// * * * * * * * * * * * * * * * * * * * * * * * * * * * * * * * * * * * * * //

dimensions      [0 2 -2 0 0 0 0];

internalField   nonuniform List<scalar> 
87341
(
100.10313046641
100.10514275426
100.101536764013
100.106048548717
100.113065258015
100.113301447267
100.111336731756
100.111937335672
100.112144925067
100.11246807913
100.112637152249
100.112368912119
100.114149539247
100.113695324633
100.115928261064
100.115977159615
100.113488711473
100.110048607528
100.107543948326
100.107210080341
100.107081126254
100.108509677105
100.106315096859
100.108062047902
100.110376581446
100.114527965976
100.109146898969
100.108103318737
100.107345781506
100.107147420144
100.107025731459
100.1074481845
100.108038568498
100.109032474554
100.114275820226
100.110217161181
100.107842631502
100.106021183592
100.108153353606
100.106697492365
100.106882659513
100.107222567104
100.109753013916
100.113185263191
100.115538408772
100.115386816018
100.108636296095
100.107711513216
100.104851421907
100.104954036583
100.10528913653
100.105135181636
100.105074849431
100.104869834765
100.102514940338
100.105917428992
100.109357648884
100.107812460352
100.104549171125
100.103530049954
100.10281964235
100.103500203544
100.103445425642
100.102673129376
100.103589898579
100.104622559847
100.107961905888
100.109568738602
100.106168302961
100.102759967924
100.105197895352
100.105412202771
100.105413043845
100.105547288084
100.105107225095
100.105005441079
100.108015861287
100.109042840101
100.106629695381
100.109825515596
100.112906697689
100.114425139038
100.112281609211
100.112044160765
100.113261913003
100.111422341035
100.108953498807
100.104698353454
100.110161494525
100.098642509397
100.087444033663
100.093451267354
100.094661033912
100.104779809899
100.099613440478
100.100661429381
100.103254685366
100.10223505762
100.101712570266
100.101854947592
100.101155996361
100.105524535999
100.106098215595
100.101937006405
100.102357568845
100.099578708463
100.098434622296
100.099427164348
100.099445638638
100.098505482782
100.099628236631
100.10237392669
100.102077566224
100.106266351084
100.105805519163
100.101326454793
100.102227961905
100.102058017422
100.1025207143
100.103536528839
100.100833609634
100.099699382227
100.105226645408
100.105528751175
100.102189988504
100.105898552361
100.112294397914
100.117283960043
100.110235598197
100.110057933884
100.114874958501
100.130214742254
100.099685014162
100.10025167882
100.0848670506
100.058044297257
100.058934880999
100.054672039611
100.05516593536
100.061313660009
100.091553069825
100.102946470566
100.099734914908
100.099419917116
100.104091014236
100.110731035108
100.092753351308
100.093342468248
100.094673847214
100.103592227654
100.098795835032
100.098793656856
100.103561009049
100.094715420864
100.093414253821
100.092877512867
100.091334587311
100.091818364916
100.095119726752
100.093370299764
100.053475669575
100.055551616046
100.056784934
100.056554795975
100.055597333256
100.055638560786
100.057769086269
100.058159872892
100.061815189259
100.091163879668
100.086313248403
100.069968871218
100.064252670762
100.064095453103
100.061207715392
100.062156069856
100.056625054547
100.056798335518
100.059151957765
100.062863191163
100.062872663087
100.059167667362
100.056792300448
100.061950825701
100.061048418864
100.054730786425
100.055608828794
100.06200536671
100.06243433034
100.061560702077
100.061249524652
100.062167052888
100.0620188812
100.061144993796
100.062251881442
100.062328719826
100.062992001371
100.063156508318
100.0625175058
100.05779961249
100.058602164447
100.058593419767
100.057848059703
100.056784522967
100.057909600644
100.057529888845
100.061001039779
100.062149721615
100.062913899207
100.063225759507
100.062553447912
100.062482235377
100.063171337386
100.063058591586
100.060923077872
100.060675174389
100.060782943011
100.060962015723
100.061054342682
100.060930320308
100.062736310293
100.061853551396
100.061834778765
100.062428114509
100.061912291682
100.060991496584
100.062140652888
100.060593463634
100.060490684514
100.060694687885
100.060799348044
100.060613014904
100.060654856679
100.060919891329
100.058501219382
100.05855503681
100.058476720038
100.058577403946
100.05863761767
100.05871468389
100.058674860882
100.058643363701
100.060893794699
100.062695299185
100.063000078495
100.062797870726
100.060769480002
100.058438687007
100.058364563496
100.058258182315
100.058309081524
100.058339438661
100.058305685792
100.058372523675
100.056405870968
100.056577083078
100.056614887392
100.056494368042
100.056590304565
100.056719815445
100.056837473735
100.056797346964
100.056760829336
100.056720879015
100.058612727677
100.060939630267
100.061354218364
100.05883673906
100.056997063663
100.056507798046
100.056358758839
100.05628648981
100.056418085512
100.056453404631
100.056353636616
100.054357481404
100.054362887922
100.05473465489
100.054746466611
100.054514628097
100.054620414878
100.054946899914
100.055171795028
100.055088889458
100.055051416382
100.055041842136
100.054728348914
100.054370605527
100.054324708311
100.054611732794
100.054655090682
100.052323607017
100.051734956678
100.051687871893
100.052376675119
100.052483881781
100.05202898092
100.052121654444
100.052738227054
100.053148217569
100.053025391006
100.052986909838
100.052999871866
100.052514461832
100.051835999319
100.051828573445
100.052340799323
100.049901404477
100.049796872713
100.048491472633
100.048283013838
100.049773477774
100.050128712161
100.049939079809
100.050085606578
100.050491369296
100.051223403446
100.050746300527
100.050722257666
100.051057670542
100.050257853849
100.04976497977
100.04965333011
100.044848484917
100.039401182456
100.03845933351
100.041374221547
100.041644977927
100.039981420549
100.040413675973
100.045432884364
100.04643028821
100.043097146395
100.045741683998
100.047008490839
100.046996614635
100.045714336685
100.042834924891
100.046047571016
100.06730794877
100.066905658199
100.06829405576
100.070898660888
100.078603156456
100.068678367335
100.068609066324
100.078088982023
100.07592813027
100.068924569913
100.075872053426
100.088102024313
100.086546891581
100.075501305947
100.066683520299
100.06537181949
100.062606272876
100.06726660062
100.06961213844
100.074891479177
100.068713273639
100.061546017872
100.061176942072
100.058384980081
100.053293164032
100.052424541722
100.056577307425
100.059807226868
100.060727046122
100.064278530071
100.077505451701
100.070933157111
100.075272023667
100.068660233301
100.070012926441
100.064183351971
100.075538293234
100.074190684554
100.073117946249
100.07845788815
100.098525130145
100.135619887303
100.17932841192
100.230097842593
100.280570463037
100.334402702024
100.376649166356
100.409088550013
100.44666619082
100.471896634159
100.484235552708
100.493254649721
100.461902770043
100.465737396166
100.468868749279
100.469405903406
100.468077767893
100.466263932138
100.465776195612
100.474255930517
100.473020059341
100.474818510726
100.477096358713
100.478673180134
100.480349316799
100.478596573548
100.4780081917
100.455186593352
100.468582294592
100.482901192555
100.471541681094
100.462848001437
100.452614747316
100.451368420841
100.455951891431
100.449445333912
100.429207985174
100.437918083743
100.448026376423
100.450929025031
100.441274071252
100.442119903681
100.449463691913
100.458588319848
100.45561626537
100.471144622446
100.423039154062
100.436417188984
100.440158231562
100.437644545747
100.433958989381
100.422794926208
100.426903139008
100.427822962142
100.420652932752
100.415931768768
100.421337655575
100.425809030075
100.426640695955
100.422008910692
100.415996558136
100.420558860693
100.429547471997
100.428061207675
100.475024169671
100.470811273775
100.415106517879
100.418392732846
100.417662835385
100.414774114291
100.42065055107
100.410251030209
100.406478444323
100.418468820691
100.41432555844
100.413507189205
100.416524392819
100.414010305782
100.420168234052
100.413808688933
100.406010659589
100.41602850008
100.431016688214
100.457126999972
100.456558813081
100.466394068622
100.466471984237
100.467675122143
100.469319657262
100.472491349555
100.473676413898
100.477534972205
100.473806152492
100.475674947499
100.478036022853
100.480184599489
100.474283132547
100.484919539937
100.469006002453
100.455608352721
100.453737189663
100.466304896396
100.460203314316
100.453548268866
100.449663385042
100.439320328024
100.4318702601
100.451763650573
100.467797738233
100.471060346246
100.471029699721
100.427629277843
100.426533102126
100.425056574444
100.419985035082
100.413420768978
100.418487564518
100.413935594912
100.404550618303
100.412418697918
100.41728599253
100.412262918963
100.415204214473
100.413367013339
100.413305870293
100.415885001104
100.413078037201
100.415208445956
100.413494287942
100.419301863984
100.412766391463
100.408037847439
100.418786372239
100.423499716098
100.4326436739
100.442174834542
100.443847486378
100.43897876737
100.431696814329
100.432517574212
100.465041154133
100.492860708754
100.476589256944
100.497061172526
100.512619686663
100.475515449043
100.454678197248
100.457211536403
100.474156667397
100.475375771083
100.475658798915
100.509571747656
100.500592243594
100.502282454816
100.486863510018
100.493277518206
100.484298866486
100.483594779898
100.4888275678
100.484401901264
100.497994052236
100.480402714817
100.49155991913
100.487747827475
100.488912768609
100.492131459795
100.501465463454
100.5123238522
100.514226103834
100.497295013322
100.495898049694
100.500091707721
100.503862937064
100.493779941412
100.466247411459
100.435316182968
100.435933995736
100.443349179777
100.447652142566
100.445492576994
100.436985583701
100.428222634943
100.41969356735
100.423649032085
100.407575089843
100.400509587148
100.40929058867
100.412392581747
100.424060171221
100.417543951373
100.405990919753
100.396669780834
100.415693053645
100.423127314103
100.420569878295
100.418540163838
100.413866559289
100.457433337672
100.461868436215
100.459192445244
100.417380484304
100.425492194419
100.425283909333
100.423656676281
100.420979609635
100.418788128092
100.430887401225
100.450912596922
100.461909660099
100.45888552698
100.414340087806
100.416539380431
100.398221114777
100.40590095392
100.416084373939
100.422260336377
100.410019051689
100.402341432015
100.398613958121
100.405684887793
100.420510387689
100.41306449606
100.429694797496
100.459889594113
100.49285170673
100.490176503606
100.477619159661
100.479631564634
100.478369426913
100.489381165154
100.493858552451
100.479984679439
100.480634308558
100.47366340341
100.500692857219
100.497247806767
100.49922780303
100.49501729204
100.480211030578
100.480770080032
100.493640906768
100.491284619967
100.486004429021
100.485934415068
100.487946626118
100.485799616754
100.490073931951
100.473380022684
100.479083108901
100.456900323904
100.443567822367
100.442496216391
100.445716238027
100.457945547121
100.439860914172
100.44271034232
100.440045115489
100.43651852738
100.434235942109
100.434708273233
100.465743399132
100.465612819845
100.465602740519
100.467823286952
100.463998241309
100.464340763397
100.46731645367
100.469760172269
100.470401702146
100.471243881418
100.471360859083
100.473103987747
100.468317033345
100.469579340337
100.468192154995
100.467224991809
100.467009135268
100.467252201764
100.468736445308
100.469046348136
100.468301003347
100.467670877151
100.467843946759
100.468651251888
100.467979148184
100.467782766345
100.468668893466
100.46873419732
100.46984038981
100.469802669163
100.47146392545
100.474071708526
100.474076278284
100.473203215054
100.474014220398
100.474550173197
100.4747469119
100.474464466244
100.474988035478
100.473329815715
100.47397906476
100.472127745086
100.469777778414
100.468621494632
100.465780507731
100.463679389155
100.4619242232
100.462172476428
100.462500562232
100.465071593062
100.462050701579
100.46525509809
100.462893188424
100.465536403366
100.469090443661
100.469552805409
100.474880848933
100.476607067119
100.478798852543
100.479703758162
100.477961374505
100.47555040389
100.47454950064
100.473552953364
100.47285340608
100.473185563194
100.473157823873
100.473148921834
100.472926885207
100.472873616531
100.472587853506
100.472201284449
100.472119845505
100.472364767955
100.473094591296
100.472771208395
100.472762282908
100.472667868409
100.472658804911
100.472679073088
100.472457483838
100.472188052921
100.471008134373
100.471309097492
100.472456453253
100.472721020059
100.47336909639
100.473494725371
100.472414638165
100.472232458665
100.472885372906
100.472289778792
100.471287388279
100.471434185608
100.471571025436
100.46929916819
100.47122159397
100.471568072418
100.471436767387
100.471796750467
100.472003215501
100.471593900946
100.471851687714
100.472772902324
100.472147221867
100.472418876424
100.472835594316
100.473046059986
100.473798830305
100.473770904044
100.474722103412
100.47454006108
100.475304101181
100.475201723654
100.47457748449
100.474712040811
100.474271328197
100.474839429713
100.477467882976
100.4756541059
100.477734174247
100.475562492673
100.474106443802
100.475188407795
100.475040244722
100.474337404038
100.475767485634
100.474158738912
100.474289787386
100.473399006496
100.47277489763
100.47239777712
100.472159930422
100.473270159092
100.471908832923
100.47011865132
100.47109721242
100.471030827078
100.46947551128
100.470821264865
100.471822811203
100.470637552746
100.469065915013
100.466272310173
100.462869456133
100.457304955498
100.464360539187
100.464879719005
100.465058628163
100.465178399704
100.464111636496
100.467962705257
100.470341948287
100.472323924494
100.471050990051
100.472375428594
100.472154830724
100.472581911051
100.473737433014
100.473207813696
100.473877151427
100.474961625941
100.473638971237
100.475371620551
100.475205003176
100.473703986044
100.475137332008
100.47305624015
100.475009950148
100.472727813172
100.472081132379
100.474665510179
100.476344653084
100.47842910223
100.476045392539
100.474389784757
100.468880947143
100.465166871064
100.466521157017
100.464350100605
100.4640011495
100.464157609016
100.464443482926
100.464750444004
100.463533127256
100.462134293489
100.462147036694
100.463969593621
100.46495801966
100.462861002974
100.46187138245
100.463086397602
100.463025674905
100.463934807008
100.46298318081
100.463976998816
100.463740381202
100.464035981894
100.462661269063
100.463591626285
100.466514237903
100.465597912037
100.468286997251
100.471236535394
100.473813264367
100.474387448156
100.472573123856
100.468983733929
100.467989549629
100.46990330483
100.472308583571
100.471402249829
100.46643741761
100.463325546353
100.461764213148
100.46321723747
100.461307931081
100.466651202496
100.46705180568
100.470447549892
100.47109677401
100.472323009691
100.473044475139
100.475564239421
100.473590201214
100.473794448177
100.47206421943
100.472766214143
100.471137544461
100.472313407242
100.47064987471
100.46910559346
100.467863371307
100.469067975694
100.469887672813
100.470058529777
100.470773625236
100.47326523958
100.475646188317
100.47580324146
100.473931052893
100.47420668997
100.474057442677
100.474182880647
100.474006907639
100.473850588301
100.473542780857
100.47325639591
100.472344811924
100.470410612294
100.470254948059
100.466568599905
100.468366206187
100.467524520509
100.467622418446
100.470311569443
100.471832192689
100.472476406722
100.474343025991
100.474343591818
100.472742077611
100.472114337275
100.47072526941
100.47220364269
100.470788818162
100.469537764046
100.468676732232
100.4682117518
100.46838159155
100.468614476181
100.469375991575
100.470390040323
100.470149263532
100.470214897957
100.471220367158
100.475675042382
100.476391576876
100.475149671762
100.475709827228
100.474566639579
100.474417298306
100.474603207987
100.473782098781
100.473354031869
100.472885492134
100.472241931086
100.471503125711
100.470448140079
100.469275940551
100.46814935306
100.466785260659
100.465643334375
100.464544494543
100.464323324267
100.464566295396
100.465003051257
100.464486976829
100.464139592852
100.463084592859
100.464259965601
100.464311551909
100.463727147256
100.463953396678
100.461146673005
100.460508806667
100.45591594765
100.455805807929
100.458209445457
100.463660437275
100.465317439339
100.468707930123
100.469561368101
100.470452094666
100.472777262118
100.470490818828
100.471116087977
100.469823723935
100.470030925633
100.46928141854
100.468747588016
100.465889047601
100.456278469904
100.454219235811
100.452874244348
100.45263106489
100.453438531618
100.455274989949
100.459932679849
100.45732873505
100.449896014379
100.436155559229
100.420574521272
100.442961169196
100.439341484711
100.436039390139
100.436216891473
100.439773808293
100.443500322067
100.436258053517
100.450631246637
100.461404397337
100.457402805031
100.464806729684
100.459335484383
100.458731111195
100.465746414727
100.459334875542
100.460623112255
100.46723766443
100.458746184406
100.462096549963
100.453670167918
100.464066968516
100.454745703754
100.45772730412
100.45373725623
100.452284759077
100.452714546578
100.45555258147
100.461760034346
100.464862816256
100.463260156836
100.464584190122
100.465235063845
100.464112351706
100.464448734069
100.466515703252
100.465691442243
100.463780389883
100.463415877623
100.458616792597
100.452619493617
100.444497803031
100.433170957455
100.421373090301
100.417582534627
100.418525222918
100.430765437966
100.42823328543
100.437922925017
100.433748492505
100.432321758618
100.429848580935
100.430195124805
100.431575455922
100.430388502056
100.435156773781
100.407779688206
100.393584510034
100.39334660556
100.398537568092
100.415694137632
100.415515227754
100.398511826159
100.384004554523
100.384081272336
100.355068676304
100.355267526506
100.357023290325
100.367360678147
100.358889350854
100.340002162218
100.308188758874
100.291050075916
100.327183574569
100.316818047477
100.316463570209
100.326654470944
100.356613519905
100.366685853928
100.35721172333
100.386683334549
100.408711650855
100.409046132499
100.408527272029
100.40802495912
100.406424611085
100.393380905227
100.419716246602
100.397360760738
100.407386218126
100.397426350405
100.396893859994
100.399285918943
100.406653496846
100.432675824052
100.438141105334
100.447543357104
100.459782279965
100.458292727421
100.448341427999
100.43461198071
100.410821341768
100.391529140647
100.360097161245
100.339426980456
100.330511051184
100.32792435486
100.333583391892
100.354617126006
100.346100924617
100.355397438277
100.344370231792
100.348835296403
100.347817887574
100.347496488674
100.352452284775
100.31040197397
100.297797993421
100.307079987742
100.338804723828
100.382070328748
100.411525469121
100.434618381143
100.452136829667
100.460343103375
100.465346142082
100.466766926658
100.467109195407
100.477530410471
100.512518135522
100.494803500622
100.492629964369
100.49332296106
100.491148019834
100.494245249118
100.497097741561
100.516309730742
100.502413193899
100.496737783593
100.491405260987
100.460657416649
100.444985026236
100.444610950895
100.449675593999
100.466703307521
100.454493021308
100.450008563299
100.445354439046
100.436778283285
100.438883370204
100.446674497218
100.448812916295
100.441546211989
100.441832227541
100.451354889018
100.45575378493
100.458049959568
100.469457790772
100.438114974576
100.437004787709
100.433047437211
100.42231372301
100.422355251715
100.434512444083
100.426499646679
100.426892872726
100.419508031083
100.414954538172
100.420478868919
100.425543950402
100.474380095536
100.480498927283
100.477940495073
100.482052076023
100.470333820087
100.472881940901
100.471493689061
100.474266657951
100.468643314073
100.466214445367
100.46331172771
100.4598486086
100.459898963667
100.459634911667
100.459807670961
100.4619343037
100.462449902587
100.463013835212
100.46488788776
100.468472977324
100.471938636348
100.473761206348
100.473317307552
100.471791226327
100.470648492499
100.470148896782
100.469890559156
100.470825056903
100.471583871797
100.470698251084
100.470245465885
100.470540986533
100.471082717976
100.471645179086
100.472093857399
100.472518664731
100.472229329225
100.471728229905
100.471081328117
100.470896229372
100.47156437268
100.4723292823
100.472932975255
100.473558293075
100.47446674749
100.473491202862
100.47305443473
100.472740835976
100.472135629073
100.472481909333
100.472410271324
100.472040397054
100.47175577649
100.471158575156
100.471590962968
100.471897379614
100.472427053938
100.472760206236
100.473171873117
100.473144394616
100.473407618938
100.473452168008
100.473080313415
100.472886052246
100.472415820875
100.472244999217
100.471864171787
100.470829941845
100.47065649418
100.470857065309
100.470999573046
100.471118834344
100.471081294437
100.471502054164
100.471639450859
100.47131887796
100.471276096816
100.471297100124
100.471482625943
100.471442344293
100.471650930155
100.472329284145
100.472662380256
100.472840183481
100.472930389537
100.473362208572
100.473613867939
100.474018839339
100.473945201488
100.475454510963
100.475692727128
100.475158995174
100.474518731235
100.473672847586
100.473962266264
100.474940472556
100.475526053991
100.475991605936
100.475817250932
100.474703963299
100.474275409559
100.473338973825
100.472776051546
100.473448033943
100.474202136868
100.474121015487
100.474636290976
100.474786021927
100.475763883139
100.475953968716
100.475514665739
100.475007060693
100.474167132268
100.473722190412
100.473382364866
100.473196908812
100.472657963353
100.472347615193
100.472061035004
100.471908998715
100.471859988047
100.471565845586
100.471372212865
100.471371356804
100.471382391853
100.471365057986
100.471929632024
100.471950929427
100.472236124318
100.471606564231
100.472802528815
100.470735568451
100.469482731244
100.468715505098
100.46811815686
100.467312607089
100.464509452742
100.463662431222
100.462936439393
100.46362180291
100.464287639976
100.46549919007
100.467414905452
100.468233873989
100.468674826332
100.46921125336
100.468987451929
100.470304673885
100.470578653055
100.47126135658
100.471309536446
100.470684548476
100.47105030814
100.470796464045
100.471144952459
100.471536823451
100.471729799367
100.472052767176
100.472405573731
100.472936110555
100.473397520967
100.473683218323
100.474161050005
100.474476493937
100.474783968525
100.475009922621
100.474704296966
100.47430030318
100.473861531439
100.473511230871
100.473033964645
100.473446649509
100.473512537923
100.473606382082
100.473988721351
100.474632197097
100.475135693056
100.475400248703
100.475090635621
100.474496744679
100.47420828525
100.47370040384
100.473541238002
100.473219756113
100.473178237937
100.472857332612
100.472472383323
100.472122487368
100.471742468056
100.471676638178
100.471211947087
100.470695991483
100.470431014661
100.470340191325
100.470286340839
100.47038187827
100.469557218094
100.46940290723
100.467753993873
100.469409763765
100.468741417582
100.469601077392
100.469648501687
100.466904140077
100.465611512041
100.464286068465
100.462492143048
100.462765962095
100.46172375596
100.460954041581
100.46035544244
100.459528774061
100.46048603686
100.461029320991
100.461108063557
100.460269635602
100.45955305416
100.459240054071
100.459235018893
100.459400896675
100.460555221457
100.462783840439
100.462881247638
100.462988384567
100.463874292651
100.464119531659
100.469090822768
100.472388979595
100.475867329938
100.474448458847
100.472909057394
100.471477719348
100.470449660851
100.470318697747
100.470958217327
100.471794792857
100.470999048
100.470694410039
100.471008797464
100.472018171327
100.473114521542
100.473569266268
100.47238794588
100.472159532337
100.472117886114
100.471778870167
100.471472531665
100.471530943494
100.47175962399
100.471923177091
100.472240565412
100.471412343972
100.470779832274
100.471194824548
100.471521491127
100.471554267132
100.471724674066
100.471709737299
100.471610837167
100.471394374995
100.471268743683
100.471049311144
100.47139991422
100.471798400288
100.472054311913
100.471932290523
100.4721959938
100.472478147029
100.47279167529
100.47277770766
100.472508175267
100.472275085612
100.471754794104
100.471253088555
100.470704622671
100.469722324091
100.470176617647
100.471217851223
100.471739054595
100.471932243435
100.472683758053
100.473661274474
100.474507756504
100.471514632709
100.46949074326
100.469619169979
100.469452989287
100.471875083042
100.473142379988
100.472093300275
100.471483389554
100.471139297567
100.472128925041
100.471448516839
100.472399315829
100.472087969704
100.471308120436
100.47095066001
100.470625229065
100.47171222218
100.468968441594
100.464561917518
100.464948658222
100.465494750795
100.465432041444
100.468058082073
100.46846995831
100.469436521261
100.470988461861
100.475060850747
100.471482606227
100.470840521156
100.472655194162
100.471395672253
100.471209245494
100.471155581222
100.470545758718
100.47058314608
100.471520510568
100.472167981346
100.471557759549
100.469933628714
100.467661354761
100.466199442271
100.46523623889
100.465078830998
100.465520477378
100.46747807891
100.470563912238
100.474710765484
100.474552035852
100.475478427293
100.471624685314
100.468771522114
100.466946775223
100.465783673978
100.464060231456
100.462056150979
100.461360681133
100.463005953534
100.461161859322
100.463439329181
100.464523319431
100.466299413094
100.47048319372
100.468627211346
100.46619105957
100.464055783434
100.463280352072
100.463226785739
100.462738380959
100.463072231914
100.463444249397
100.465174391185
100.467993901606
100.470937365881
100.471194754826
100.472529083314
100.471851422252
100.472328346392
100.472188442486
100.471700864453
100.471188547785
100.471301673569
100.469573328849
100.470274294047
100.468759959811
100.468909066375
100.468204717851
100.466572290107
100.467238770359
100.468452719599
100.4689203386
100.471243650751
100.470058197329
100.470876144627
100.469307820964
100.469125452412
100.469721187857
100.47075682294
100.471455391736
100.471665487296
100.471840044482
100.472449818449
100.472052173034
100.472796163031
100.472382919615
100.4723580248
100.472570338072
100.472205799119
100.472865144038
100.471425664101
100.467403042187
100.46651254347
100.465769323027
100.465103759032
100.465238309854
100.464487981405
100.463104751022
100.463188217674
100.463011850254
100.463228637329
100.461937025218
100.46196750566
100.462885906202
100.462579760338
100.462434059434
100.462472360846
100.463688335652
100.466168643804
100.468600795647
100.471008033166
100.470816417729
100.471387877007
100.471850905589
100.473205856044
100.47205145679
100.471350353204
100.471467475007
100.472719749651
100.470170141936
100.469371715876
100.470128172599
100.467401138645
100.468502819892
100.469663371283
100.470058382102
100.469133472118
100.467632492325
100.467881767827
100.468016111493
100.468094057323
100.466963065121
100.467885003987
100.46946444526
100.470912727269
100.472141576369
100.472954231927
100.467791665306
100.465050218996
100.463924339722
100.463094423365
100.462710274013
100.462497383188
100.462565105854
100.463324106927
100.464809964541
100.466524493053
100.467879388498
100.468791768245
100.473538218546
100.471355566973
100.493587778807
100.484881994068
100.453996765939
100.422890509122
100.385653124555
100.365106962238
100.379385124699
100.376748950739
100.37510340394
100.375567924021
100.37651752875
100.377449294619
100.378532586525
100.379843142412
100.381252755467
100.382544057636
100.383593850067
100.38434076226
100.38472874143
100.383456522419
100.382114234504
100.380670383141
100.379151294832
100.37761994091
100.376088410232
100.374513632909
100.372891190639
100.371358916389
100.370324819258
100.370453206919
100.372169289577
100.373678751849
100.373509369142
100.373305026105
100.374139705688
100.374817667527
100.375117435084
100.37529886259
100.375537398278
100.375715806338
100.37581299442
100.37585512939
100.375900822759
100.37593987928
100.376006346026
100.376068244202
100.37611354188
100.37630112219
100.376381660102
100.376422920512
100.376350384196
100.376297281417
100.376255698487
100.376161400078
100.376035115862
100.376039496812
100.375987198904
100.375937343529
100.375861721747
100.375823537649
100.375777648215
100.375729050229
100.375634789021
100.375419752289
100.375607487666
100.375679174212
100.375715623451
100.375762474699
100.375799438997
100.375863756695
100.375896091763
100.376072538997
100.376154880767
100.376328840061
100.376109647672
100.375901197404
100.375800442156
100.375951270984
100.37588419303
100.376142626047
100.376052776268
100.375980063296
100.37580838221
100.375777265172
100.375717769881
100.375691356528
100.375628856384
100.37561211786
100.375522067354
100.37546874114
100.375216306869
100.374897011838
100.375258951773
100.375417430478
100.37548065329
100.375553240183
100.375592399503
100.375600731889
100.375667161704
100.375727987954
100.375758071944
100.375926062604
100.375983615065
100.375973405414
100.375899277198
100.375777253957
100.375952241473
100.375814766786
100.375898111526
100.375852034097
100.375697311262
100.37568424678
100.375629111763
100.375567405611
100.375538203417
100.375492717972
100.375419274597
100.375335446757
100.375173796608
100.374764751901
100.375167350811
100.375298672589
100.375372054351
100.375436042137
100.375481884157
100.375515454247
100.375570388131
100.375627584474
100.375619994487
100.375747586027
100.375731375616
100.37575894298
100.375819376465
100.375726647875
100.375607228132