/*--------------------------------*- C++ -*----------------------------------*\
| =========                 |                                                 |
| \\      /  F ield         | OpenFOAM: The Open Source CFD Toolbox           |
|  \\    /   O peration     | Version:  v1612+                                |
|   \\  /    A nd           | Web:      www.OpenFOAM.com                      |
|    \\/     M anipulation  |                                                 |
\*---------------------------------------------------------------------------*/
FoamFile
{
    version     2.0;
    format      ascii;
    class       volScalarField;
    location    "0.5";
    object      p;
}
// * * * * * * * * * * * * * * * * * * * * * * * * * * * * * * * * * * * * * //

dimensions      [0 2 -2 0 0 0 0];

internalField   nonuniform List<scalar> 
79587
(
100.071952457952
100.073896708414
100.070521311299
100.074868467984
100.081910189893
100.08202560326
100.07998097004
100.080505741539
100.080618725318
100.080992882529
100.081280132335
100.081092241381
100.08297055433
100.082658668063
100.084996507043
100.084954342583
100.08163655659
100.076989892218
100.075972083277
100.075969122623
100.076959494988
100.076676545644
100.075895108771
100.077440175307
100.083849476436
100.083748151443
100.078091830504
100.076423458978
100.076397082534
100.075580353624
100.075453345057
100.076521674081
100.076433496794
100.078048706177
100.08351183702
100.083415647763
100.077241284993
100.075856597786
100.076666074189
100.076736870546
100.075833484906
100.075838028614
100.076905281649
100.081469687924
100.084612736508
100.08446894658
100.0775704505
100.077118592404
100.074832457192
100.07412379073
100.074251686893
100.074119217861
100.073526727486
100.072205131376
100.07332236192
100.074639943101
100.074738690063
100.073831687805
100.072865741876
100.071641485528
100.071311841221
100.071901961402
100.071825685293
100.071150002398
100.071651993294
100.072846967369
100.073676666442
100.074761871166
100.074837307323
100.073421992105
100.072343666847
100.073697656139
100.074190633154
100.074295175126
100.074081524343
100.074786623988
100.07732505607
100.078047014777
100.075637339103
100.078538707303
100.081453781133
100.082805265283
100.080482859657
100.080292307968
100.081684753967
100.07996615226
100.077604883054
100.073374912375
100.078651972011
100.067421288574
100.056418968946
100.062188484523
100.063285680732
100.074230158576
100.069901031443
100.07053034547
100.072854930111
100.070979978122
100.069498239896
100.068913238042
100.071633510963
100.073450573777
100.069310048601
100.068547992736
100.070746527516
100.06748501331
100.06637325944
100.067604290991
100.067605645412
100.066418620581
100.067494418432
100.070687935536
100.068419434483
100.068854135035
100.073492405522
100.072067797179
100.069199241384
100.069638963147
100.071026713295
100.072846531842
100.070431800531
100.069738787594
100.074488206772
100.074512627002
100.071493907591
100.074605959186
100.080817187012
100.085505598819
100.078449615266
100.078393026777
100.083198503245
100.099141653961
100.068839021336
100.069360156224
100.053669182151
100.026682687666
100.027620085296
100.023446996261
100.023748125627
100.030037822543
100.061456084373
100.072662815636
100.068368757626
100.068109668554
100.074801657319
100.063020832601
100.063717222505
100.063550302986
100.063780896985
100.071537041334
100.067074301748
100.06705637426
100.071473710602
100.063798324585
100.063611026725
100.063746901137
100.062877869416
100.061579581695
100.063581409351
100.061538751268
100.021905615455
100.024321844663
100.025128364799
100.024765337576
100.024162209922
100.024252489093
100.025729459325
100.026347520752
100.030476296432
100.027726380584
100.028714286612
100.032225444941
100.032229574382
100.028757701387
100.02773548748
100.030280350179
100.029782664564
100.023176002696
100.023989644318
100.030557607821
100.031231160645
100.029828460334
100.02948086914
100.030757214286
100.030667871911
100.029856273151
100.030189204544
100.030437307831
100.025406585679
100.026229755073
100.027460079382
100.027415303768
100.026143362111
100.02523981396
100.026142039105
100.025472571009
100.029661509484
100.031001753273
100.031590378235
100.031740792823
100.03111816732
100.031222100219
100.031885041389
100.03177344865
100.031215510118
100.031418490231
100.031576022866
100.031586053969
100.030768485058
100.030422930079
100.030361446004
100.030616087716
100.030164956661
100.029963033282
100.031212223794
100.029482659008
100.029296750013
100.029471720109
100.029293891502
100.029578487786
100.029900394875
100.029785788217
100.029653570569
100.029451210752
100.029636670315
100.029628634348
100.029636382258
100.029521075374
100.031243276096
100.031197277359
100.031474142626
100.031369186386
100.029491329283
100.027181154188
100.027198517453
100.027065807473
100.027144024109
100.027063060995
100.026869572142
100.026892234232
100.027112390555
100.027178391182
100.027097589616
100.027270524401
100.02724989625
100.027331980789
100.027293115358
100.027272415511
100.029492578296
100.029604283555
100.027303203127
100.02541455203
100.025295509051
100.025295472483
100.025182571374
100.025246105872
100.025327691071
100.025413754195
100.025156655667
100.024937298374
100.025137199927
100.025094241691
100.025275302383
100.025289553307
100.025414245204
100.025406937677
100.025401918228
100.0237600248
100.02375106545
100.023609815241
100.023567705097
100.023429398519
100.023392158974
100.023227406347
100.023460462391
100.023330991042
100.023027651999
100.02329163498
100.023260521243
100.023469871548
100.023533710738
100.023708581745
100.02374675423
100.022055360836
100.02208017054
100.022015405225
100.021792877943
100.021682258654
100.021465599602
100.021338819382
100.021000949045
100.020607496517
100.020668366939
100.02102932144
100.021231888402
100.021279484376
100.021544494804
100.021669707726
100.021947646913
100.019887852279
100.02011110672
100.020138638522
100.019953792395
100.019599803085
100.019390013908
100.019018151255
100.018814435153
100.018605421872
100.017697628531
100.017736297281
100.018565924255
100.018664761904
100.018905285153
100.019247628493
100.019468608049
100.016325431134
100.017098665993
100.017522609024
100.017528476683
100.01709826075
100.016391030851
100.016331251212
100.015707749331
100.015095002439
100.015189253535
100.013580977371
100.013570588983
100.015113990324
100.014994320268
100.015699693445
100.01623052483
100.011725089358
100.010957655407
100.012579330313
100.013609586921
100.013568931147
100.012530133581
100.010852539986
100.011678171996
100.010872201104
100.00863732271
100.009895349608
100.006361994352
100.006350711309
100.009909658722
100.008699293174
100.010984949975
99.9995747455455
99.9999379909684
99.9951608868508
99.9980502953815
100.00206214861
100.001960148952
99.9979571745023
99.9946612000842
99.9997375968788
99.9992348749882
99.9913197569698
99.9952705172511
99.9907174395309
99.9906961029904
99.9953809476501
99.9919651042955
99.9985583754951
100.007761673316
100.007180426028
100.001691142814
100.008591064283
100.010683059718
100.010451759333
100.008123868972
100.000991396186
100.006460644333
100.007177397139
99.9980555710941
99.9937385339066
100.024596745767
100.046434285884
100.046266577498
100.024623902022
99.9912517106181
99.9915454703228
100.084639967851
100.1681386924
100.104013984795
100.10432470637
100.090866136022
100.079977250109
100.070102314603
100.068254031049
100.065373522423
100.065515138992
100.078841802687
100.07147649767
100.071203167098
100.078129610331
100.064651755022
100.064326466002
100.067719360319
100.069304286963
100.079158153801
100.08981382834
100.181179666553
100.197903632543
100.198197629172
100.181927499355
100.185360061488
100.176111309302
100.201717642487
100.243952481757
100.155242571584
100.157887672701
100.209625010181
100.174113071185
100.200657806502
100.225912812648
100.166267022008
100.165888068621
100.225280354327
100.199812085115
100.172914046621
100.208095417869
100.155819051456
100.153291136305
100.200206385255
100.175191968719
100.184202408428
100.271496518155
100.316917087897
100.286211634419
100.2862638994
100.317797342891
100.291230506933
100.272608881227
100.396779419868
100.426833548155
100.379946492919
100.398431008444
100.401332413273
100.351083572773
100.293793204508
100.326649936239
100.272843323382
100.396058001199
100.429830983535
100.386030671795
100.389018692495
100.314587881232
100.318597632705
100.246865343785
100.294269390429
100.380055660749
100.424965947596
100.392355017822
100.39901927237
100.334577980557
100.287935315339
100.329198428702
100.30992318605
100.31470276069
100.338780878533
100.249305309153
100.249118067073
100.33866328954
100.314277960403
100.309132258919
100.327889408519
100.286272148408
100.332981517522
100.31678215333
100.312700175654
100.324903657359
100.292391320956
100.29023483356
100.349649696415
100.397334620535
100.37915923459
100.3940878287
100.425869171438
100.425895310283
100.394581168693
100.365024705587
100.364940102697
100.443917801913
100.467718590397
100.457788838495
100.457752035414
100.458836078671
100.447612121395
100.430163086157
100.474364599541
100.4756558685
100.471884689851
100.465873830454
100.463171867995
100.456816448837
100.441742226649
100.441630947193
100.444226891589
100.45549848245
100.424934871285
100.42630150481
100.428975384769
100.435863537923
100.456445378127
100.453833764543
100.43640534308
100.395643236976
100.404108062817
100.383723699351
100.416475751842
100.405908054869
100.405670441187
100.41591582171
100.382840063251
100.402953601492
100.394290197339
100.397352963121
100.390313927754
100.387129193099
100.384130676877
100.399758490302
100.440388597843
100.440913774544
100.447028277249
100.458919484359
100.471932058279
100.46978856506
100.478856530822
100.478779752838
100.470012391884
100.468685443448
100.468874085486
100.475409183355
100.472788329593
100.474872808618
100.47484428863
100.477974482929
100.470883029947
100.473938944999
100.475954361326
100.474699885031
100.475099432736
100.476326469359
100.474471667296
100.473494262531
100.473297036454
100.473206880171
100.472498358608
100.467499894528
100.463729138041
100.46975533151
100.457983712039
100.476295536779
100.475504982942
100.474016691989
100.471978581665
100.477725582653
100.472532006783
100.470842496672
100.475652181522
100.458222873916
100.46023623739
100.460507967027
100.473932958217
100.469670154258
100.467859187331
100.467750764032
100.453301901648
100.44807995237
100.453294954755
100.439908242784
100.439786751061
100.453050568983
100.447695434892
100.452829104625
100.435262614845
100.452802633879
100.455233492579
100.434151947879
100.42700987563
100.42456255932
100.423182296837
100.442829806254
100.456819046864
100.463020298445
100.462370325895
100.465690474405
100.47307870826
100.470447666902
100.477944103266
100.474757984129
100.474916505619
100.475557602178
100.475710775955
100.475136568035
100.475206854729
100.475218809577
100.473894757418
100.475610423057
100.475574273099
100.475549495568
100.476550527
100.476369579632
100.475590409364
100.475884636188
100.476705810282
100.476820181112
100.47713809856
100.4768067873
100.476734273676
100.477088412074
100.476098595598
100.475172979705
100.474958271733
100.475331775123
100.474663637044
100.472673761698
100.474680562652
100.473079188139
100.473791560369
100.473675008457
100.474036324671
100.47421866411
100.474625463427
100.472905750686
100.472570525756
100.474139117145
100.478540994738
100.473061952583
100.472845585705
100.476662653435
100.474764143925
100.477420333978
100.472125412291
100.434229513766
100.430437153939
100.433038749605
100.444815156845
100.447055277158
100.436611117435
100.435541129171
100.432182624891
100.430115285125
100.426028506884
100.428639524875
100.416798619987
100.426813794902
100.443566970438
100.430009437736
100.43320569689
100.443810760421
100.466513657301
100.465307015401
100.470700105031
100.46088265921
100.463180143899
100.467760208226
100.470172553268
100.462108181415
100.452168325519
100.450069353617
100.427232500609
100.431554828628
100.435915209235
100.43567414282
100.429498642037
100.42376983344
100.436004382701
100.421822046339
100.421815162841
100.433751957337
100.436560133033
100.423226266432
100.420659068174
100.442497694099
100.473861898876
100.474064445159
100.462623408547
100.479940587789
100.464579529059
100.495709572287
100.477942980909
100.463004104882
100.468466191945
100.468406099411
100.472439408131
100.464495656804
100.468491208868
100.452682089189
100.43254961323
100.427000612103
100.431784013342
100.411698597972
100.417838149073
100.44075169221
100.438177720638
100.430648463493
100.424730108556
100.438854733073
100.427091029282
100.425204271814
100.433820524593
100.423872001018
100.422609307125
100.422096734211
100.422621124684
100.420508096234
100.442433908031
100.473748786696
100.473991999284
100.462363137447
100.479384565337
100.476227946503
100.434093714501
100.434900492867
100.43534411125
100.428977146034
100.43436417992
100.476685734231
100.479481435105
100.476765424182
100.490208864466
100.484861474672
100.465254978348
100.446201449667
100.464546314653
100.469415893357
100.467457956351
100.467191149436
100.468242142008
100.452310765347
100.432288528069
100.432342795078
100.432513556303
100.437041622262
100.436608625814
100.433729374513
100.43589897546
100.42978714608
100.421575830449
100.426385535329
100.43873906056
100.432304567854
100.446478086869
100.436801225533
100.435164799537
100.443009407326
100.432238087622
100.432079927597
100.423553782384
100.433252392347
100.433381307969
100.436591451051
100.432913530203
100.443198442421
100.465667845647
100.464766376337
100.469930244648
100.463565942686
100.494495536972
100.47867546984
100.428138941165
100.434414677551
100.434907189128
100.470981639721
100.471452766592
100.491384783093
100.487343283526
100.486924865701
100.468824070681
100.471629856675
100.463783934428
100.449514678076
100.426430013025
100.426382799923
100.431125804472
100.436933720048
100.436650397745
100.440658745338
100.44085246125
100.434050759968
100.434060792334
100.45042433891
100.44529472075
100.450048863508
100.450000224409
100.446561746916
100.44535556498
100.443378853793
100.443973597794
100.451548224937
100.451526188473
100.444338432133
100.443416410053
100.442765738379
100.434853363321
100.424768606331
100.420952681526
100.421124950497
100.429145120409
100.442439644198
100.462003071462
100.459782933107
100.461633600288
100.476631022905
100.48369549016
100.488860927
100.475977229175
100.470446587644
100.471008113383
100.490857614392
100.465197480844
100.461796493589
100.467585733232
100.464158617353
100.456933281005
100.470876338732
100.471306524584
100.472414579425
100.47129932266
100.46972011725
100.468724055174
100.47116971612
100.47411000436
100.475964403812
100.476923623462
100.47738951018
100.477380011822
100.477276087712
100.476985826451
100.475889371729
100.474540419663
100.474610922953
100.479249169527
100.488122217222
100.513697734818
100.516111439847
100.465598213954
100.424634932933
100.381517280087
100.356884367997
100.375380866786
100.373203456277
100.371732708153
100.372295605179
100.373236130665
100.374151880976
100.375239029791
100.376608532272
100.378150084035
100.379650929017
100.380888360455
100.381704349396
100.382049500208
100.382023850292
100.381807241245
100.381365035311
100.38069441932
100.379811515575
100.378698680855
100.377415478989
100.375997461164
100.374452487689
100.372843970024
100.371296306072
100.369893008556
100.368681940347
100.367688775084
100.366950931855
100.366581195464
100.366683668405
100.367365332404
100.368637102947
100.370307613335
100.372052278318
100.373189711697
100.373366628898
100.373301950026
100.373225719038
100.373385756888
100.37316201471
100.373244686727
100.373633087346
100.373577099116
100.373741843807
100.373805801514
100.374232382346
100.374455741397
100.374735666944
100.375046238337
100.375063969867
100.375238586146
100.375018278194
100.3749517467
100.374847537855
100.374744457996
100.374634371075
100.374533647452
100.374381930032
100.374303268039
100.374165878057
100.374049870165
100.373918900533
100.373777422575
100.373578652305
100.373543445134
100.373445878249
100.373710649011
100.373837136422
100.373979872593
100.374102010923
100.374251575033
100.374351486463
100.374483319052
100.374599555944
100.374719431153
100.374826099122
100.374964962919
100.375141950751
100.374841297072
100.374616313398
100.374249270348
100.374045628631
100.373638763467
100.373647879112
100.373504790105
100.373561676855
100.373152564835
100.373125445318
100.373261146547
100.373075835735
100.373083134285
100.373469453755
100.373439453103
100.373554776453
100.373515743777
100.373909183105
100.374116000335
100.374516375561
100.374717019963
100.374615044024
100.374413047753
100.373960937672
100.373764355151
100.373419647564
100.373468844273
100.373367361245
100.373338519619
100.373011833863
100.373024736862
100.373132136373
100.372963550049
100.372955864386
100.373217488313
100.373275748524
100.373370041893
100.373332305129
100.373651240112
100.373807085172
100.37428052701
100.374521884048
100.374402590692
100.374161547893
100.373669219654
100.373543511533
100.373245665141
100.373236638948
100.373185443492
100.373118607135
100.372886367391
100.372909574476
100.372987392871
100.372842637952
100.372826216054
100.373016452038
100.373059480678
100.37300907469
100.373357535135
100.373400077826
100.373596318405
100.37404676323
100.374292779629
100.374182197817
100.373922694366
100.373460449312
100.373220911688
100.373149452279
100.372904161788
100.372972711057
100.372923827633
100.372757271283
100.372792273238
100.372840790593
100.372728861477
100.372699155611
100.372831398201
100.37286679492
100.372825096592
100.373027425723
100.373099490102
100.373304605247
100.373767772139
100.374045031936
100.373866594352
100.373604255855
100.373130881533
100.372983079175
100.372944947103
100.37278515773
100.372766992975
100.372764140536
100.372745721889
100.372630917129
100.372683504253
100.372702998895
100.372620722842
100.372573564391
100.372681838237
100.372704434005
100.372737222556
100.372721644895
100.372931868184
100.373067888201
100.373492418232
100.373724631568
100.373579373542
100.373350814579
100.372939779593
100.372791004637
100.372642171125
100.37266675486
100.372632009235
100.372633282438
100.372506405322
100.372575584723
100.372560650247
100.372513953403
100.372450032919
100.37258925872
100.372547527904
100.372597854008
100.372592111016
100.372700844175
100.372797535741
100.37320120778
100.373441164398
100.37321104959
100.373022380066
100.372673416852
100.372634974179
100.37251374314
100.372511545189
100.372479095543
100.372534638518
100.372386650652
100.372466875613
100.372391255156
100.372401144025
100.372338422218
100.37243786295
100.372396955171
100.372439253675
100.372436995563
100.372538667763
100.372523051291
100.372877365137
100.373090919866
100.373120647921
100.373052954345
100.372898452421
100.372898330683
100.372578341981
100.372489616196
100.372453182697
100.372316409753
100.372352923026
100.372347309592
100.372299575459
100.372338866566
100.372283166918
100.372321156957
100.372287342215
100.372143409717
100.372331598861
100.372085663222
100.372281370623
100.372233996319
100.372227478274
100.372238032465
100.372231623759
100.372274505323
100.372281063724
100.372265750405
100.372449639425
100.372616124097
100.373047675959
100.373114771302
100.373198304879
100.373095363485
100.372737261089
100.372566920155
100.372503680959
100.3724421842
100.372715977766
100.372442713656
100.372337745522
100.372191760509
100.372176188009
100.372170701125
100.372134049836
100.372109481319
100.372153075284
100.372127937891
100.372196736972
100.372011014849
100.372126002501
100.371915272998
100.37212293043
100.372037269254
100.372085887004
100.372049149633
100.372045297879
100.372023041919
100.372091727899
100.372125432327
100.372298749558
100.37230561349
100.372161166554
100.372205283879
100.372149048134
100.372110347577
100.372012756408
100.37195494352
100.372190923254
100.37199022542
100.372024437188
100.371997862139
100.37200656524
100.371989440171
100.372019095969
100.371953382833
100.372023662264
100.371842107106
100.3720005811
100.37176585669
100.371950220488
100.371877948369
100.371912478128
100.371900953705
100.371920836446
100.371901762421
100.371897709709
100.371950483157
100.371966161678
100.371911007828
100.371889808316
100.371852715666
100.372053131396
100.372085032492
100.37208144877
100.372126560022
100.37217255635
100.372202829425
100.372236110367
100.37225976623
100.372290695989
100.372343693116
100.372422859484
100.37251076115
100.372582136692
100.372671869394
100.372784286914
100.37288711871
100.372997401821
100.37312945795
100.373285733536
100.373415983272
100.373860998604
100.374027848192
100.37446727741
100.374560582769
100.374914364979
100.375159721537
100.375149991342
100.375400248578
100.37520229992
100.37501090549
100.374989476184
100.374540837203
100.374351674218
100.37425923741
100.374065748143
100.373936132939
100.373828710962
100.373729103305
100.373602373983
100.373537092287
100.373480363021
100.373430591844
100.373346128639
100.373328583243
100.373291578451
100.373561035437
100.373468089155
100.373665619626
100.373757029444
100.373833153528
100.373860408918
100.373939061459
100.374062713624
100.374154376785
100.374233664864
100.374361574055
100.374512978027
100.374616057544
100.374719519764
100.374941797995
100.37522368883
100.375329502765
100.375095356041
100.37480881431
100.374252218783
100.373631338027
100.373834922614
100.374008286574
100.374579959028
100.375049213592
100.375298998415
100.375472073176
100.375331071396
100.375121317346
100.374820373957
100.374395398426
100.373710389121
100.373593214961
100.37346990945
100.373155090674
100.372939548295
100.372468350255
100.372225113776
100.372077166403
100.371919480347
100.371821196332
100.371672072125
100.371599484296
100.371515446936
100.371430565693
100.371359248945
100.37178382714
100.37215146567
100.372254869024
100.372257897273
100.372326790755
100.372421871361
100.372543376132
100.372616544611
100.372767755145
100.372906755647
100.373134135245
100.373658611048
100.373706089666
100.373977632988
100.374275517609
100.374764168387
100.374296208963
100.374327373587
100.374566513318
100.374346733407
100.373932511556
100.373114972497
100.372881466307
100.373287995965
100.37370217027
100.37366315708
100.373734355192
100.373939715122
100.374106583666
100.37428054971
100.374697200086
100.375171568862
100.375403251669
100.375536651262
100.375442193442
100.375201811348
100.374763737463
100.374301435385
100.374159689675
100.373732402381
100.373243410447
100.372563830582
100.372446303997
100.372196985528
100.371880123453
100.371650730252
100.371461306212
100.371250051851
100.371020736422
100.370836803512
100.370661767017
100.37056686102
100.370400192564
100.370261899211
100.370061672361
100.369939727245
100.369848168805
100.369861384833
100.369699625184
100.369634856813
100.369974518594
100.370465511946
100.370561763809
100.370569955807
100.370369207701
100.370413554861
100.37050808725
100.370669145352
100.370773222844
100.370928767434
100.371028664751
100.371186092246
100.371351747761
100.371632205198
100.371980554321
100.372163624573
100.37263709518
100.372680142342
100.37295254045
100.372502639477
100.373009780996
100.373443436663
100.373548087429
100.373645811811
100.373030546653
100.372997965913
100.37330540053
100.373338136274
100.37363315157
100.373968320415
100.373902546302
100.374182174516
100.37421153939
100.374444805563
100.374820784975
100.375309855282
100.37549756402
100.37564131005
100.375477586308
100.375513204989
100.375381115934
100.375036290402
100.374449087154
100.37384416763
100.373322423723
100.372673348513
100.371979009138
100.371772476981
100.371675123462
100.371513114923
100.371494476188
100.371301735574
100.371102848299
100.37098219122
100.370873991908
100.370691275454
100.370801990635
100.370600867632
100.370408932274
100.370250925162
100.369958931776
100.369702839147
100.369459722527
100.369299625459
100.369000555524
100.369208208203
100.36950545307
100.369751505841
100.369990178835
100.370239998607
100.370336436855
100.370496987637
100.370661478195
100.370725261459
100.370828925563
100.371029188004
100.371227782693
100.371469206396
100.371630981537
100.371817412532
100.371781682067
100.371294069355
100.371624044721
100.371816281041
100.372231972275
100.372258786899
100.372437130311
100.374201978552
100.373991091538
100.373850749114
100.373173909449
100.373030712514
100.373490752338
100.373597578915
100.374056030584
100.373980911228
100.37422521917
100.374312265939
100.374895518361
100.375244465661
100.375656176122
100.375834164181
100.375701123499
100.375793277831
100.375603124571
100.375440139225
100.375048202102
100.374552043869
100.37384935798
100.37334840474
100.373066310797
100.372651158207
100.372322303866
100.371976825428
100.371642843638
100.371762755796
100.37168615757
100.371595335574
100.371792374737
100.371555210153
100.371435691328
100.371385639984
100.371292741558
100.371565928814
100.371330545387
100.371114893068
100.370989012526
100.37081707106
100.370611930543
100.370331922414
100.370054619008
100.369787105101
100.369476569242
100.369144933841
100.368735619771
100.368342478398
100.367696448
100.367944265821
100.368469181877
100.368900655907
100.369105821785
100.369360451557
100.369627634153
100.369897905697
100.370191561792
100.370365856783
100.370550749554
100.370766225629
100.371084459455
100.371271369257
100.370966886935
100.371005488603
100.371131414436
100.371305395115
100.371592265708
100.371503375455
100.371493471319
100.371197029936
100.37088565988
100.370689107858
100.370700648332
100.37082423847
100.372756302214
100.369777260068
100.36886344944
100.368492362068
100.367830762251
100.367371558789
100.366928746803
100.366313127495
100.365247598197
100.36460486507
100.363916474977
100.363635975743
100.359923417719
100.357333650358
100.364221345704
100.36295679304
100.363438945848
100.365250806614
100.366417239255
100.36738087915
100.368131754532
100.368450086206
100.36879614915
100.36921427451
100.36958403015
100.370068721835
100.370435483682
100.369362571376
100.371264364781
100.368766616361
100.372665897595
100.372566349245
100.372545526784
100.372564975184
100.372875086543
100.373253519353
100.373478500826
100.373302075961
100.372613276826
100.371747285727
100.370766974736
100.369278028583
100.367714941513
100.367098529276
100.371400524902
100.374244917705
100.370674918224
100.366137451551
100.363687666453
100.36305331944
100.352019318979
100.356378607475
100.352904776594
100.35652977842
100.35610934432
100.356896981077
100.361792879493
100.361965570473
100.359324655361
100.361244815683
100.35661872174
100.357630461417
100.359191842308
100.359669524462
100.360568851087
100.361896940382
100.361761278925
100.364011788734
100.366843843659
100.369367773321
100.370936926412
100.372040379743
100.372075886543
100.372151260875
100.372137620668
100.372590410876
100.372762027036
100.372947558979
100.37314152278
100.373331645706
100.373505331297
100.373642126973
100.373744337066
100.373630303997
100.373400812923
100.373504326215
100.373291997726
100.373456655833
100.373745727939
100.373351355215
100.373464367287
100.37390387089
100.37403930899
100.373999719994
100.374159411769
100.374659375333
100.37502177904
100.375440469698
100.375613216531
100.375753992489
100.375766781256
100.375534995995
100.375226514705
100.374746221919
100.374925806901
100.375181023592
100.375618964621
100.375803572847
100.375892346588
100.375823498626
100.375543451608
100.375193240492
100.375023134447
100.374951586437
100.374587204849
100.374168799399
100.373519651384
100.372701210282
100.37242046867
100.372230833897
100.371990164017
100.371900174155
100.371919528924
100.371874994982
100.372237491831
100.37210283064
100.372426954857
100.37232663774
100.372195566059
100.372024090109
100.372222398264
100.372064110762
100.371984101081
100.371861196813
100.37173001269
100.371549319368
100.371310453592
100.371381420389
100.371159887166
100.37096512857
100.370770597662
100.370554932231
100.370300469204
100.370040214096
100.369580430304
100.369839994267
100.370151410952
100.370407585013
100.370637916261
100.370861650547
100.371063679123
100.3712960726
100.371065490201
100.371137321059
100.3713165271
100.371506019391
100.371740088352
100.371864225768
100.372036191884
100.371715828225
100.371800187595
100.37199975029
100.372107005179
100.371802466826
100.371741043367
100.371538352884
100.370932000027
100.370095002541
100.369785086573
100.369921645
100.370305253806
100.370660403713
100.371551867922
100.372458359919
100.373018112757
100.373493615004
100.373812224141
100.373603114576
100.373594187457
100.373793161326
100.374216429593
100.374128755544
100.374412041532
100.374593890739
100.375100042171
100.375693603487
100.375676829782
100.375844015487
100.375802671404
100.375555626091
100.375514825491
100.375340790592
100.374918363384
100.37434737291
100.374052352947
100.373642893011
100.372927052859
100.372514841786
100.371951023335
100.371934705843
100.371873450693
100.371923337054
100.372078596847
100.372317757124
100.372289732018
100.372648266168
100.372465204057
100.372685892766
100.372580711072
100.372562868608
100.372335072061
100.372433898716
100.372275886654
100.372158061525
100.372053586283
100.371947249419
100.371775947184
100.371712071667
100.371543048174
100.371360905595
100.371153293793
100.370954333003
100.370751402517
100.370502010124
100.370236064897
100.369963581762
100.369656789983
100.369280274818
100.368960386009
100.369312655942
100.369687839577
100.369864747776
100.370166020063
100.370439816071
100.370682867919
100.370893231683
100.371110084776
100.37132403778
100.371551374807
100.371746190962
100.371663175965
100.371790518282
100.371917596642
100.372013300302
100.3721481497
100.372376743005
100.372227351291
100.372251104637
100.372349964906
100.372551299855
100.372290832394
100.372289178582
100.371841005961
100.370832685803