/*--------------------------------*- C++ -*----------------------------------*\
| =========                 |                                                 |
| \\      /  F ield         | OpenFOAM: The Open Source CFD Toolbox           |
|  \\    /   O peration     | Version:  v1612+                                |
|   \\  /    A nd           | Web:      www.OpenFOAM.com                      |
|    \\/     M anipulation  |                                                 |
\*---------------------------------------------------------------------------*/
FoamFile
{
    version     2.0;
    format      ascii;
    class       volScalarField;
    location    "1";
    object      p;
}
// * * * * * * * * * * * * * * * * * * * * * * * * * * * * * * * * * * * * * //

dimensions      [0 2 -2 0 0 0 0];

internalField   nonuniform List<scalar> 
80571
(
100.260245971283
100.259828980438
100.259288429038
100.26217892557
100.266638122599
100.266665923403
100.267062403743
100.267761130768
100.265590309013
100.265645099902
100.26583677607
100.265719942455
100.265830314118
100.266006803337
100.265759087541
100.265613296776
100.267777560506
100.267051678659
100.26665255808
100.26662847696
100.267335710529
100.267881700847
100.265604581479
100.265917977214
100.266177652326
100.265489850105
100.265489898375
100.266178090505
100.265918453881
100.265605397514
100.267886439968
100.267339604361
100.266630734525
100.266653877565
100.267051821875
100.267776609137
100.265615858287
100.265761452879
100.266006935355
100.265832412543
100.265722483217
100.265839130898
100.265649372965
100.265594005994
100.267761091015
100.267062626659
100.266667100244
100.266640604223
100.26735061101
100.267900192362
100.26561129879
100.265925647876
100.26618854667
100.265500626314
100.26550099025
100.266189366929
100.265925966483
100.265610649217
100.267896060338
100.267346973037
100.262593529918
100.262864101599
100.262217738784
100.261923941887
100.262285950549
100.262560214023
100.262560269625
100.262285760512
100.261923036667
100.262217815334
100.262865632185
100.262594382046
100.262180660357
100.262561422775
100.263280329504
100.263678804497
100.263730912376
100.263860072567
100.263484920029
100.263858185785
100.263921252153
100.263514524912
100.263824866249
100.263719947347
100.263682895918
100.263274826155
100.262568489398
100.26217246625
100.26258881517
100.262856421219
100.262209273148
100.261914377029
100.262275969129
100.262550656908
100.262550766694
100.262276308569
100.26191443097
100.262209064497
100.262856010885
100.262588701763
100.262170880297
100.262567326096
100.263273328369
100.263682001797
100.263717807848
100.263820356568
100.263511332335
100.263917736698
100.263854586492
100.263482174569
100.263855984994
100.26372875567
100.263678026755
100.263278609141
100.262559847171
100.259789296569
100.260816089487
100.259136466406
100.259780715376
100.260098656023
100.259842236023
100.260397792714
100.258504305988
100.258478515319
100.259499782316
100.259500047956
100.258477415769
100.258502087393
100.260397363812
100.259845608009
100.259920845785
100.259290072616
100.259789668092
100.260817561507
100.260983967986
100.26222279375
100.262434425255
100.261324050177
100.261224972293
100.261175134997
100.261231786388
100.262352747512
100.262185393261
100.26097418499
100.260811679443
100.259788867749
100.259287436619
100.259912629446
100.259834800906
100.260388224902
100.2584935128
100.258468316474
100.25949092754
100.259490974286
100.258468440025
100.258493853261
100.260388228115
100.259833775564
100.259912624083
100.259285719405
100.259788580579
100.260810162565
100.2609743569
100.262183510234
100.262344141473
100.261225681963
100.261171320819
100.261221352797
100.261317009402
100.262425048107
100.262220638516
100.260985873013
100.259125946728
100.251067590349
100.251398922916
100.251452020767
100.251645654143
100.251910796485
100.260798118377
100.25947410765
100.259641481099
100.259640913584
100.259471899895
100.260799834637
100.26010003868
100.259776213269
100.259829256855
100.259139182264
100.259121516274
100.259242663007
100.263630325908
100.260887615982
100.260817506059
100.263543497067
100.25923660754
100.259121843196
100.259151467274
100.259752638311
100.259825093644
100.260243931299
100.261089360952
100.261831016275
100.261701002257
100.262238867121
100.264482242332
100.26451355306
100.263102622302
100.261709785171
100.260722382806
100.260109859428
100.259824863782
100.259824738831
100.260109465838
100.260721673069
100.261708730771
100.263101397886
100.264951028072
100.265175904397
100.263668872145
100.262019255474
100.260805270497
100.259965109637
100.259461811141
100.259213647349
100.259213778292
100.259462224313
100.259965820628
100.26080629163
100.262020576876
100.26367063023
100.265176565175
100.264951727899
100.263008405181
100.26331463282
100.263132682283
100.262671825168
100.262445334769
100.261873496078
100.262654194012
100.2623879514
100.260880350945
100.257815233911
100.252493635498
100.251077433412
100.251398735372
100.251464715564
100.251655823782
100.251912811532
100.251912441422
100.251654717241
100.251462629129
100.251396665326
100.251075247725
100.251143519455
100.251131524838
100.24996081476
100.249825538839
100.249900124668
100.249761672469
100.249831074586
100.249893199977
100.249893681695
100.251911538454
100.251646683572
100.251453791802
100.251401036088
100.251069477134
100.251131689026
100.251143976779
100.249965180895
100.249825659533
100.249897410867
100.249774577921
100.249838714081
100.249896005892
100.249895498038
100.249837320694
100.249771553324
100.249894748467
100.249821160765
100.249961851801
100.250404914335
100.25040899041
100.250289266567
100.250330629704
100.250210594295
100.250250720175
100.250248291454
100.25024886569
100.250252620606
100.249832411567
100.249764656564
100.249902800473
100.24982990611
100.249964073973
100.250414412342
100.250410462128
100.250290367239
100.250331887765
100.250214408276
100.250250831527
100.25024781365
100.250247156103
100.250248687707
100.250210619092
100.250327596683
100.250284419206
100.250032599345
100.250080490959
100.250081703331
100.250037447687
100.250109530737
100.250050903744
100.250069064563
100.250057321659
100.250058458094
100.250071933513
100.250056071215
100.250214222153
100.250334809134
100.250295026548
100.250044976869
100.250089690907
100.250088668772
100.2500406565
100.250110290126
100.250049689676
100.25006429527
100.250050541843
100.25004932254
100.250060908982
100.250044056262
100.250103994159
100.249082557978
100.249016593297
100.249057214431
100.249058212237
100.249021244886
100.249092410441
100.249062427988
100.249077737151
100.249088436301
100.249090387312
100.249082300426
100.249070350175
100.249102042565
100.250115669819
100.250283804935
100.24922104976
100.249032541689
100.249070488094
100.249069722602
100.249029148875
100.249091840148
100.249057196236
100.249069903206
100.249076549035
100.249074358064
100.249064428016
100.249048878645
100.247820281726
100.247851540313
100.247799864469
100.247859927725
100.247862853519
100.247810638737
100.247864332841
100.24784129336
100.247847374086
100.247879658097
100.247882725891
100.247854976254
100.247853299094
100.247879006976
100.247829223113
100.247882240163
100.247879194877
100.247818803706
100.247866721827
100.247833969084
100.247834223017
100.247859825008
100.247856688941
100.247826244789
100.246486533979
100.246524628124
100.246551191994
100.246487354078
100.246580952981
100.246585411296
100.246506361773
100.246575308942
100.246555099843
100.246520163082
100.246585584783
100.246591397447
100.246531669279
100.24657418782
100.246599194155
100.246534991322
100.246615597244
100.246610530182
100.246515375798
100.246578167723
100.246542867614
100.24649777006
100.246553690922
100.246548385239
100.244934652258
100.244771573437
100.244901826937
100.24492701468
100.244800280646
100.244992321495
100.244997420797
100.24482765047
100.244968236757
100.2449511082
100.244826729103
100.244988952831
100.245006773052
100.244843340442
100.244980564979
100.245006404288
100.244871880385
100.245043919308
100.245036348292
100.244839457075
100.244966605202
100.244929440054
100.244791067168
100.244943501891
100.242620433126
100.242605846663
100.242157761197
100.242475636244
100.242510130534
100.242231805455
100.242689718138
100.24269573746
100.242267951968
100.242570642096
100.24255663566
100.242243112671
100.242697131633
100.242708608501
100.242270189999
100.24259471786
100.242629517759
100.242336883701
100.242767094827
100.242754215978
100.242285375566
100.242565118163
100.242523892191
100.242188692036
100.237242427325
100.238482446188
100.238458468907
100.237188831266
100.238046283053
100.238075239146
100.237340039542
100.238630571703
100.238630182093
100.23738581151
100.238178836252
100.238174292524
100.237334263698
100.238606058076
100.238620615294
100.237374718833
100.238236824742
100.238273426017
100.237498275739
100.238746598754
100.238722297943
100.237410994535
100.238165218799
100.238115451478
100.23150491637
100.229564324905
100.232405144369
100.232368590938
100.229468050017
100.231393381821
100.231425678696
100.229847058655
100.232749157219
100.232695561078
100.229820628614
100.23161401321
100.231608526192
100.229710507547
100.232596424133
100.232608625697
100.229761691178
100.231716753253
100.231767828115
100.230002326764
100.23287968024
100.232846874537
100.229891231664
100.231578404534
100.240458798309
100.240452212718
100.238585603948
100.240936444393
100.240906650655
100.238578768518
100.24024289829
100.240205237607
100.238817392084
100.24119040186
100.241434719926
100.238944287173
100.240639413848
100.240580332512
100.23897965601
100.241196921141
100.241172813885
100.23880310551
100.240818645029
100.240858664387
100.239227481515
100.241747658627
100.241726350185
100.239446719009
100.276150244271
100.27064796885
100.270851221916
100.275763310031
100.271520802583
100.271515442331
100.275701615055
100.270678398492
100.27037534442
100.275761775378
100.271940174887
100.272130601205
100.27622497903
100.270804975291
100.271072519344
100.276011824458
100.27177429786
100.271807172648
100.276129403468
100.271283796839
100.271060385663
100.276574173399
100.272506466577
100.272337352337
100.310529657136
100.32730703498
100.315925915963
100.32602938531
100.308555526824
100.325053251541
100.314602564983
100.326295425405
100.308883833365
100.308936633142
100.32634894673
100.314586320479
100.324859517304
100.325731343921
100.315618844471
100.326958431264
100.343798999507
100.344082199716
100.327418229446
100.310395207985
100.310164764897
100.357135474616
100.386364365257
100.37368597351
100.374190435707
100.383633874028
100.3727652808
100.360604145925
100.316226347492
100.326531020796
100.325366236191
100.308874097529
100.363658327629
100.384595738022
100.365512136734
100.364892286555
100.371317791634
100.380321434463
100.357972985306
100.314807086953
100.326498667758
100.342831171189
100.309101453595
100.309156855976
100.326627200988
100.314989099712
100.325615741591
100.309141164081
100.326823691147
100.316581834914
100.327791813621
100.310797048487
100.344575533367
100.344315544484
100.374305430296
100.382732155375
100.35995421926
100.372058639694
100.364848834361
100.364572385653
100.371091516069
100.357874404889
100.380416216443
100.371219908343
100.371276753019
100.380500985475
100.37100822398
100.364361405118
100.364555450553
100.371685619441
100.382244430904
100.39944315386
100.402375995271
100.407975368724
100.408082167473
100.403295558909
100.395161330493
100.394560614249
100.409336730365
100.415207602955
100.414014738069
100.414131498424
100.413673155061
100.412928599508
100.411394356224
100.400948257563
100.40497660911
100.402709056865
100.392900233881
100.41316914832
100.414485185518
100.413524246501
100.411034657263
100.410904576004
100.410953560762
100.401576312399
100.391370650841
100.402639562439
100.410694910506
100.412555041589
100.415814338722
100.416363975481
100.416256560986
100.416881708786
100.417195688356
100.417256523797
100.417312962255
100.417395237196
100.41748698144
100.417569712966
100.417638461916
100.41768308951
100.417710268381
100.417730510563
100.41778439277
100.41798309718
100.41855891259
100.420035960483
100.422963070818
100.4288216562
100.43772981651
100.454625619641
100.446624769294
100.400540569558
100.356883724846
100.310899500477
100.286240561963
100.301316066027
100.302110683033
100.299931374861
100.299691376062
100.300610299521
100.301714620509
100.302887518642
100.304267894993
100.305808466021
100.307291942099
100.308491714561
100.309292298741
100.309652797382
100.308953629217
100.308043489723
100.306942324414
100.305641657895
100.304076119558
100.302284854338
100.300467403399
100.298827177033
100.297516090567
100.29654898478
100.295891610284
100.295449454468
100.295140327651
100.294925116055
100.294788330718
100.294756719561
100.294859746064
100.295210108948
100.295930021905
100.297190747021
100.29904583727
100.300543800778
100.300923120516
100.301012230684
100.301020255918
100.301056668252
100.301048590354
100.301080174162
100.301106366966
100.301090907529
100.30109652968
100.301053617893
100.30094386925
100.300785573315
100.300921352328
100.301103791741
100.30125298287
100.301191300611
100.301031089619
100.301087667085
100.301106271581
100.301094998245
100.301097649109
100.301116608863
100.30110944288
100.301067999851
100.301073945396
100.30104757901
100.301039396306
100.301017481793
100.300880917356
100.300754141038
100.300953177874
100.301035259153
100.30105514803
100.301069237324
100.301078563056
100.301124372789
100.301113905571
100.301105514614
100.301131105864
100.301156216978
100.301269437204
100.301238300188
100.301367295039
100.301429709807
100.301393583606
100.301295569213
100.301170243296
100.301123963627
100.301146306707
100.301143069192
100.301104482311
100.301098649517
100.301084430221
100.30107616152
100.300939776364
100.300946996238
100.301109151917
100.301132895514
100.301125602061
100.30113292447
100.301138394403
100.301167161565
100.301200031559
100.301196250641
100.301207184221
100.301210148667
100.30140344546
100.301552074873
100.301607947575
100.301568463976
100.301441012151
100.301637742566
100.301677618257
100.301808572957
100.301880421229
100.301847015664
100.301713043451
100.301627078018
100.301476175391
100.301248255688
100.30125186971
100.301218966378
100.301183888962
100.30115949929
100.301160050029
100.301172485388
100.301123347428
100.301174058157
100.300941636426
100.300760790215
100.301061880564
100.301170400934
100.301168367171
100.301202424238
100.30122505274
100.301216315275
100.30126229577
100.301267105623
100.30128389506
100.301320189787
100.301322997002
100.301554209987
100.301712042459
100.301804493705
100.301796628953
100.301816324576
100.301682974762
100.301658971935
100.301474836731
100.301425192466
100.301368082207
100.301345553497
100.301284314722
100.301229156367
100.30126022122
100.301272381843
100.301220160099
100.301230333363
100.301033981734
100.3010821422
100.301212164289
100.301292775841
100.301290724704
100.301320989587
100.301313528467
100.30137504346
100.301423248607
100.301468886927
100.301508865177
100.301727049725
100.301893782034
100.302005499775
100.302030054815
100.301907556481
100.302049291303
100.302032143701
100.302094181366
100.302159294467
100.302119735086
100.302054979457
100.301904119394
100.301743596342
100.301539583155
100.301514904534
100.301512902833
100.301449397759
100.301483836932
100.301396012929
100.301358063724
100.301377753442
100.301203823984
100.301326898827
100.301427371889
100.301461491916
100.301421655573
100.301491993264
100.301502757349
100.301530643599
100.301523221712
100.301581649233
100.301590578359
100.301796948517
100.301955941656
100.302068540238
100.302083081159
100.302083232799
100.301913218387
100.301892494051
100.301696865758
100.301638022247
100.301572228107
100.301570969825
100.301540167491
100.301546854518
100.301564976686
100.301521822873
100.301460488505
100.301544315616
100.30125589837
100.301405107625
100.301480581574
100.301567894465
100.301532379936
100.301574709309
100.301603897489
100.301634486904
100.301611393217
100.301673011092
100.301652770891
100.301723540105
100.301993237736
100.302172309734
100.302288792931
100.302275896971
100.302328452705
100.302388413034
100.302350829662
100.302198731749
100.302021237917
100.301802677368
100.301764704461
100.301666487117
100.301667499888
100.301703437423
100.301629655092
100.30165268151
100.301699158557
100.301637057278
100.301683807433
100.301623448344
100.301423418668
100.301631266877
100.301627137426
100.301660875019
100.301729551759
100.301695456833
100.301804252403
100.301734468316
100.301824418436
100.301803003346
100.301840819725
100.301953724515
100.302139092401
100.302321026754
100.302329702038
100.302295544299
100.302133942612
100.302186088706
100.302358565584
100.302501175137
100.302426460238
100.302541465184
100.302423034366
100.302440539355
100.30243851489
100.302265466019
100.302055764522
100.301923331239
100.301884419073
100.301805927672
100.301791498814
100.301829156903
100.301769477065
100.301779049788
100.301785236283
100.301767420209
100.301729288764
100.301762868212
100.301757497978
100.301437147995
100.301774569466
100.301675450819
100.301598346004
100.30180780985
100.301772404296
100.301811466853
100.301838423364
100.301811155625
100.30186589791
100.301856945473
100.301973982782
100.302057932701
100.302089260996
100.302326969838
100.302503053979
100.30268146273
100.302614896519
100.302742661836
100.302669545746
100.302676845172
100.302651263898
100.302444808231
100.302214836967
100.302132858801
100.301990200203
100.301966239371
100.301986821422
100.301887848178
100.301939315062
100.301864119248
100.301829354427
100.30187125306
100.301795391079
100.3017879409
100.301848386314
100.30146430472
100.30066001038
100.301455583789
100.300884957145
100.300053617115
100.300976126307
100.300430896128
100.299720108983
100.298859459399
100.300195091168
100.299679550772
100.298007622608
100.29655097028
100.295555801501
100.294998058698
100.294746949184
100.294687204242
100.294764898323
100.294945736422
100.295231452732
100.295651757371
100.296273838142
100.297172471815
100.298385279
100.299917275571
100.301638278266
100.303365805908
100.30491962789
100.306238965671
100.307363615518
100.30830340361
100.309031443191
100.309586965885
100.310180040027
100.310576387612
100.310071652551
100.30939290494
100.308500460067
100.307399721784
100.306088242211
100.304508080952
100.302694175397
100.300841190695
100.299149194177
100.297774020727
100.296760532745
100.296077748726
100.295620472744
100.295310398979
100.295089201454
100.294932062928
100.294854807457
100.294879788341
100.295084198208
100.295557911775
100.296510524666
100.298278206553
100.300179885456
100.300885187929
100.301012126436
100.301030513501
100.301049087801
100.301064848465
100.301089172134
100.301107062151
100.301110389374
100.3011237672
100.301057687896
100.300904445138
100.300625113857
100.300720055324
100.300438680735
100.299981869584
100.299347678391
100.299730126823
100.300142621416
100.300605406497
100.300506105593
100.300210557428
100.300579232188
100.300782717539
100.301010969986
100.300812589195
100.301045712288
100.301218859197
100.300830466486
100.300353758279
100.300710430078
100.300922850735
100.301207968823
100.301601346078
100.301543943417
100.30135302285
100.301109396575
100.301019183838
100.301144073009
100.301292703283
100.301232010091
100.301156148679
100.300977370947
100.301147276154
100.301107006253
100.301080306505
100.301014234971
100.300978256271
100.300956543709
100.30096695193
100.300986991153
100.301023945467
100.301048098799
100.30105165381
100.301079466425
100.301103427212
100.301090087551
100.3010997136
100.301045081077
100.300913485532
100.3008140766
100.300959310839
100.301073159372
100.301081921807
100.301105276638
100.301099724614
100.30108225905
100.301073561022
100.301112159377
100.30109712294
100.30110885116
100.301046205446
100.300912892506
100.300664938854
100.300218848482
100.300762547113
100.300296802465
100.299869895536
100.299160418053
100.298204896075
100.297123696156
100.295570763126
100.296964483636
100.297333243375
100.298039723961
100.298668313123
100.299039939289
100.299375418298
100.30008871066
100.300162100772
100.299941061732
100.299423418971
100.29888298809
100.29835228444
100.298115078565
100.298886247049
100.299334337726
100.299967342051
100.300269859761
100.30078822826
100.300964472544
100.301093054232
100.301101370907
100.300993433518
100.300977817835
100.301005637737
100.301034169098
100.301064724224
100.301140949103
100.301106387292
100.301204268227
100.301200222691
100.301262383434
100.301206964799
100.301088745764
100.300811277254
100.300422012772
100.299790640916
100.299032902893
100.299021452012
100.298046381759
100.296873942699
100.295088584125
100.293119007821
100.290283431747
100.291314855742
100.292778747735
100.293824165914
100.294727339019
100.296146748547
100.296368929433
100.295698715823
100.295039701024
100.293754398638
100.293254332448
100.29505947492
100.296441632369
100.29695382801
100.298433639114
100.29997348881
100.300616048467
100.300723073528
100.300787590088
100.300997537463
100.30103446589
100.301053162759
100.30108272287
100.301160655069
100.301237754027
100.301158634795
100.301358615157
100.301346051354
100.301418793313
100.301373975151
100.301255887935
100.300963969489
100.300569070366
100.299856423578
100.299163158531
100.298050392558
100.296948353834
100.294886712754
100.29481077091
100.292634153364
100.289443805934
100.285522978348
100.280182292842
100.260442316641
100.270815839082
100.28155366172
100.282597703362
100.286933429585
100.28819469202
100.283419218882
100.287191486442
100.289488612201
100.291233366944
100.292811017789
100.293746845732
100.294994857103
100.29515149533
100.294401271892
100.292951697467
100.291579820388
100.290124035636
100.289827163328
100.292200218789
100.294214969809
100.295139577743
100.297145402799
100.298394214461
100.300386960369
100.300834363484
100.300798232444
100.300869260558
100.301015644227
100.300979370146
100.300985399322
100.3009792123
100.300993043121
100.301027328214
100.301063017343
100.30112808042
100.3011337067
100.301167831096
100.301243963135
100.301159813254
100.301365983506
100.301355398923
100.30143269899
100.301387557816
100.301289879743
100.300966510314
100.300617390162
100.299848482911
100.299180577209
100.29805566583
100.296941299255
100.294880045905
100.292429645692
100.289237827438
100.289187104891
100.284709915658
100.279178645248
100.254680036896
100.225727391534
100.165052031746
100.183296308879
100.189205117276
100.192842373804
100.192420991595
100.199172573119
100.196529757094
100.192835343229
100.198140444529
100.20289128982
100.20123630049
100.196898065556
100.205554204843
100.201059714278
100.201407549624
100.208694866073
100.202269425067
100.201225800938
100.209194026402
100.204809661314
100.198297734316
100.207392976843
100.204011343921
100.196947072821
100.205612061617
100.202529489947
100.194965895097
100.205703984322
100.207100433756
100.204555176203
100.203822442876
100.201837304507
100.200329225918
100.199864489983
100.19998765717
100.199930645826
100.200305409758
100.200598480269
100.200606221086
100.200258673852
100.200483179267
100.200647694263
100.2007199757
100.200514434899
100.200381538468
100.200779575269
100.200475038683
100.200321142352
100.200260127098
100.200497293258
100.200604134225
100.199892842532
100.199901513805
100.200562969286
100.200467080643
100.200223442017
100.200332597286
100.200479706675
100.20078509074
100.200380276095
100.200515501804
100.200720202896
100.200648021484
100.200485020267
100.20026176125
100.200608749412
100.200601770739
100.200308633617
100.199932327138
100.19998425372
100.199864396724
100.200333723973
100.201302429899
100.202320347785
100.20234031399
100.20129388729
100.201769487323
100.202704796292
100.202715354676
100.201789498092
100.201849436174
100.201696918618
100.201279188132
100.20188206515
100.202087748596
100.200732729031
100.201242671015
100.200983329125
100.201151330011
100.201594452534
100.200680335232
100.20133261976
100.201860540006
100.20197327366
100.202551504893
100.200777597783
100.201739255832
100.201118606413
100.201027062768
100.200600529779
100.201164815847
100.202962352273
100.201657336182
100.200366965763
100.201584300959
100.201568030513
100.200345417452
100.201148070842
100.200597413446
100.201020662255
100.201125223503
100.201739268757
100.200772123673
100.202553493095
100.201968312034
100.201854174056
100.201329708665
100.200673737614
100.201591051506
100.20114886414
100.200978441192
100.201238797764
100.200725292225
100.202086955775
100.201883403989
100.201278723216
100.201688631188
100.203692285809
100.203133042832
100.203958361556
100.201496621785
100.200082465485
100.20393508827
100.20313891666
100.202577699153
100.203224717
100.202002249807
100.202892797376
100.200277565413
100.205921597877
100.205196338691
100.205540011249
100.202008226714
100.201168178484
100.201156803646
100.20199662521
100.203814854978
100.203700378135
100.203139869538
100.20323289896
100.202584133639
100.20313918572
100.202992517656
100.201075740762
100.202027535536
100.203210330745
100.204214016503
100.202369794919
100.202698566201
100.203515445137
100.204539572459
100.202066305395
100.20148899794
100.202003023691
100.20209124737
100.202080910966
100.201568543672
100.201841815423
100.202609414804
100.202603175318
100.201831192294
100.201550892559
100.202080675419
100.201999598192
100.202060952911
100.204552003525
100.203512853409
100.202693392534
100.2023591166
100.204225784798
100.203228269894
100.202036447338
100.201073092461
100.203004681712
100.202209882475
100.20096749966
100.201742030929
100.20154404665
100.202523458686
100.200981300559
100.200599211646
100.202818768162
100.203105185077
100.203327161733
100.202972397215
100.204034086021
100.202226703196
100.201790089141
100.203977474952
100.205001333468
100.205136421243
100.204030419798
100.204867097606
100.201440797819
100.202569593176
100.204528708309
100.203759059825
100.205348770505
100.204593319784
100.205635488115
100.204728578529
100.201385337924
100.202083064053
100.201543434078
100.199778604497
100.193707496318
100.194035291297
100.188153650577
100.191602990265
100.178821967386
100.172427320119
100.175826975605
100.182044967622
100.162429639113
100.235967170885
100.258602203889
100.222093347849
100.250949192034
100.270228328059
100.278166721028
100.283786982983
100.283747437994
100.279074971838
100.272365989044
100.279747512451
100.283741444123
100.286493270395
100.288691494289
100.286707051949
100.289798901336
100.291353531506
100.292796297223
100.293819895622
100.293716589662
100.292208550856
100.290865880013
100.290505308154
100.292009590002
100.293274441535
100.293875590642
100.294795310667
100.292997857263
100.294349791448
100.292738402217
100.292074326409
100.292015075531
100.292216967212
100.292660612495
100.291578406431
100.291322591919
100.291443256551
100.292561478998
100.290763691667
100.293865276769
100.293600517084
100.294269023964
100.295318305352
100.297203201832
100.296535891587
100.295609056467
100.294723051511
100.293697529655
100.292699585178
100.291953609313
100.290871826536
100.293047754402
100.292094634272
100.291877518724
100.292665486459
100.292278795286
100.29283247563
100.292179271063
100.296337072028
100.296941367273
100.297263478799
100.296884159941
100.296343321722
100.296518348711
100.298612150149
100.300354854238
100.298958031362
100.298460133446
100.298938115715
100.294873458895
100.294484142359
100.295783334511
100.297363604159
100.296737983818
100.299248608075
100.297340822355
100.297708005473
100.298186199269
100.297426347462
100.296774461777
100.296029684287
100.295823556874
100.296220394911
100.295371173525
100.294265038648
100.293174340538
100.292384877867
100.29272409677
100.291660637866
100.290630406019
100.291552880579
100.290215041452
100.290411271439
100.290782395642
100.292102488941
100.29389536221
100.29413458677
100.292758328649
100.293209270773
100.292768822076
100.29577798193
100.293475206008
100.293619480629
100.294354507442
100.295579106247
100.297641771979
100.295342989566
100.297089571918
100.297974288425
100.299817774398
100.300533219095
100.301594546472
100.300632101722
100.300055515325
100.300103998419
100.301461991041
100.301064976951
100.300031534851
100.300119953073
100.297905998066
100.299315474881
100.298227231195
100.297304642517
100.298844297731
100.298161245218
100.298531749594
100.298102199834
100.298206763714
100.297947417858
100.299812645072
100.300283988297
100.301161328193
100.301633567569
100.301703660432
100.301778826953
100.30154377493
100.301575740758
100.301041703139
100.300650066162
100.300071249656
100.299352585432
100.298480212421
100.2974002575
100.296382379326
100.295559509142
100.295147196494
100.29613732279
100.29767314618
100.299613826726
100.300722416578
100.300681347329
100.300676390241
100.30106477828
100.301031460467
100.301054907507
100.301085195886
100.301147162002
100.301106924422
100.30122114795
100.301214883599
100.301283691385
100.301226145662
100.301127930104
100.300809896458
100.300462425273
100.299762959563
100.299018937351
100.297924178447
100.296787408746
100.294780400227
100.292594901376
100.289500109064
100.28562041833
100.280434073157
100.260797445228
100.255017239545
100.22599315767
100.164601030176
100.183105287154
100.189125467446
100.192783162431
100.19236514192
100.198987428425
100.201070995627
100.196802639296
100.205549654011
100.201004297969
100.201366328934
100.20860882851
100.20225034855
100.201202395674
100.20914339262
100.204779530652
100.198290220301
100.207338948212
100.203999286465
100.196931505923
100.205592616819
100.202526185769
100.194955204793
100.20590241365
100.205168948799
100.205580808607
100.205672051471
100.204570869357
100.207121537595
100.201489681984
100.203961119821
100.201973759335
100.20393460823
100.200083260455
100.200974400247
100.202205639074
100.203317221978
100.20400645373
100.203134096693
100.202443368181
100.201060589291
100.201449562143
100.204043787597