/*--------------------------------*- C++ -*----------------------------------*\
| =========                 |                                                 |
| \\      /  F ield         | OpenFOAM: The Open Source CFD Toolbox           |
|  \\    /   O peration     | Version:  v1612+                                |
|   \\  /    A nd           | Web:      www.OpenFOAM.com                      |
|    \\/     M anipulation  |                                                 |
\*---------------------------------------------------------------------------*/
FoamFile
{
    version     2.0;
    format      ascii;
    class       volScalarField;
    location    "0.9";
    object      p;
}
// * * * * * * * * * * * * * * * * * * * * * * * * * * * * * * * * * * * * * //

dimensions      [0 2 -2 0 0 0 0];

internalField   nonuniform List<scalar> 
87341
(
100.100473020038
100.102485196168
100.098879288391
100.103391120921
100.110407853753
100.110644055151
100.108679361428
100.10928000365
100.109487629679
100.109810835424
100.109979981221
100.109711793471
100.111492505924
100.111038380488
100.113271392503
100.113320358841
100.110832008289
100.107392009061
100.104887436399
100.104553634569
100.104424779305
100.105853375385
100.103658844632
100.105405831365
100.107720389711
100.111871783318
100.106490700017
100.105447089652
100.104689513248
100.104491112623
100.104369358839
100.104791752785
100.105382052171
100.106375867295
100.111619126813
100.107560372001
100.105185749825
100.10336421245
100.105496297336
100.104040359425
100.104225427582
100.104565284601
100.107095683379
100.110527888775
100.112881006146
100.112729405718
100.105978850222
100.105054085957
100.102194027729
100.102296682057
100.102631841685
100.10247793946
100.102417695751
100.102212788075
100.099857972433
100.103260537848
100.106700842019
100.105155774724
100.101892593716
100.100873565361
100.100163216911
100.100843846379
100.1007891343
100.1000168871
100.100933693879
100.101966389466
100.105305750403
100.106912569894
100.103512107163
100.100103736453
100.102541613369
100.102755865638
100.102756615345
100.102890788017
100.102450618334
100.102348760167
100.105359078792
100.106385936755
100.103972712238
100.1071684707
100.110249559228
100.11176793802
100.1096243653
100.109386864525
100.110604576135
100.108764955353
100.106296084758
100.102040903251
100.107504076007
100.095984967401
100.084786235619
100.090793476034
100.092003278341
100.102122296554
100.096956005096
100.098004049596
100.100597351785
100.099577797889
100.099055385855
100.099197867369
100.09849899803
100.102867613758
100.103441386304
100.099280338596
100.099701040212
100.096922268354
100.09577822605
100.096770838511
100.096789379658
100.095849269032
100.096972083792
100.099717847256
100.099421509147
100.103610276738
100.103149365311
100.098670256252
100.099571717183
100.099401708331
100.099864321655
100.100880041627
100.098177027699
100.097042715668
100.102569886794
100.102871828752
100.099532980947
100.103241478186
100.109637235686
100.114626737091
100.107578325891
100.107400612851
100.112217583393
100.12755734831
100.097027526455
100.097594329857
100.082209609516
100.055386506332
100.056276746254
100.052013765451
100.052507695055
100.058655635115
100.088895438054
100.10028902142
100.097077564279
100.096762684674
100.101433874004
100.108074028828
100.09009642891
100.090685957361
100.092017710406
100.100935901667
100.096139592132
100.096137494811
100.100904898157
100.092059533002
100.090758415888
100.090221686233
100.088678675343
100.089162117785
100.092463066081
100.09071319062
100.05081845008
100.052894202427
100.054126465405
100.053895805148
100.052938091629
100.052979353194
100.055110384618
100.055501918133
100.059157715395
100.088506583909
100.08365612451
100.067311795876
100.061595224729
100.061437296999
100.058549059684
100.059499010275
100.053967995643
100.054141324503
100.056495652999
100.060207336803
100.060217116657
100.056512334104
100.05413698483
100.059295333901
100.058392398664
100.052074181408
100.052952399607
100.059349143741
100.059776286559
100.058901063786
100.058588903479
100.059506064469
100.059357840739
100.058484976721
100.059589879577
100.059668953569
100.060335893459
100.060501366142
100.059861896054
100.055143524547
100.055946905526
100.055938704358
100.055193677997
100.054130431459
100.055254974767
100.05487454501
100.058346844207
100.059497001425
100.060257903172
100.060566698771
100.059891850907
100.059819183419
100.060507888692
100.060395259116
100.058255385126
100.058009529363
100.058120539767
100.058303828828
100.058400235973
100.058280306302
100.06008337458
100.059199158114
100.059181648738
100.059775792925
100.059260165169
100.058338427384
100.059490155035
100.057947682868
100.057839381134
100.058038360885
100.058138337891
100.057947950683
100.057987580761
100.058251762474
100.055824639543
100.055879472581
100.055804573561
100.055910462227
100.055977497664
100.05606218059
100.056029954686
100.056005056161
100.058247900198
100.060044763812
100.060350785441
100.060148927752
100.058125925573
100.05580504433
100.055726283913
100.055610692738
100.055652307206
100.055675440585
100.055634965098
100.055698202779
100.053719111243
100.053886878768
100.053926536497
100.053810708991
100.053915182579
100.054055540703
100.054185999818
100.054161639477
100.054137638549
100.054106045681
100.055978960016
100.058295940854
100.058709040611
100.056199215392
100.054376494049
100.05389262266
100.053734209099
100.053645887671
100.053760566913
100.053781916604
100.053672383786
100.051657742323
100.05165546376
100.05202438751
100.05203786054
100.05181274385
100.051931097036
100.052274637174
100.052519893029
100.052468399947
100.052450779873
100.052461135734
100.05214570419
100.051768989122
100.051694740994
100.051950188393
100.051970695314
100.049618806649
100.049007320832
100.048951236058
100.04963831019
100.049746846851
100.049300545512
100.049409257634
100.050053344255
100.050489547736
100.050426682846
100.050426996768
100.050477800755
100.049986179595
100.049271697733
100.049213530034
100.049666402054
100.047202060251
100.047044110641
100.04571346916
100.045504242747
100.046990791462
100.047347511745
100.047165236472
100.047327512204
100.047772436707
100.048551278795
100.048178492727
100.048242738179
100.048645271112
100.047837893249
100.047271813315
100.047060937806
100.042280733419
100.036672489784
100.035595618428
100.038489317258
100.038777846942
100.037131827888
100.037570371315
100.042588353754
100.043592223473
100.040307296544
100.04305723317
100.044481536641
100.044647771422
100.043493744742
100.040589759942
100.043672249135
100.06506563703
100.064520669145
100.065686485785
100.068130397007
100.075692259262
100.065720916673
100.065547681958
100.074903785717
100.07269922413
100.065695032992
100.072651718775
100.084911636993
100.083430878715
100.072452074132
100.063641731568
100.062245105302
100.059564708643
100.06420617796
100.06650359346
100.07172990622
100.065356501085
100.058108774186
100.057740722069
100.054993512617
100.049971910779
100.04919735884
100.053454758372
100.056784972124
100.057785556854
100.061375589817
100.074599609184
100.068020204472
100.072338590311
100.06566725127
100.067083683788
100.061193918559
100.072505145385
100.071052849427
100.069929207155
100.075189617035
100.095185206998
100.132209526121
100.175940245006
100.226776258838
100.277382968595
100.33140347899
100.374074447595
100.406599990062
100.445774580373
100.470608669513
100.484724971969
100.493281031026
100.458975752745
100.463420514916
100.467370030976
100.468408017397
100.466118128033
100.464025663829
100.466484660789
100.47486263322
100.472541441759
100.474726628394
100.477780714307
100.479777883397
100.481801000567
100.479500849856
100.480053363348
100.458289478199
100.471953679329
100.486762220705
100.473284162046
100.465791408885
100.455560909015
100.455299142666
100.459227400398
100.45273172701
100.434941058287
100.443068913743
100.452225329747
100.45454594456
100.445992646758
100.446951472807
100.451818122753
100.461111599865
100.459013740654
100.473022891339
100.422419865456
100.436152853823
100.442170998758
100.442435952332
100.437147533422
100.423059301825
100.427384975384
100.429687420913
100.422457475706
100.417745684681
100.421751510787
100.425167319201
100.424798068803
100.420232279896
100.412159323161
100.416930102731
100.427192347292
100.426335524298
100.468775574102
100.463204039738
100.411451453425
100.415135041079
100.412136724763
100.406756992446
100.414759484235
100.403711563999
100.396948616136
100.412480817761
100.416830507504
100.415158552071
100.415868790592
100.413556055222
100.421982766292
100.413292188636
100.408693642917
100.421375692793
100.431560322278
100.457663950029
100.448856777949
100.459528054078
100.462236658059
100.462801288727
100.462488085013
100.464404421468
100.465655952839
100.468314342731
100.464666544825
100.464937523335
100.466633764625
100.469196611596
100.461697744691
100.467350519272
100.451492939329
100.43953729529
100.439018563653
100.452959284575
100.446815187957
100.438345145433
100.433779339219
100.421994770233
100.415016424601
100.43910427148
100.455856278458
100.455862509678
100.455632265247
100.407318821281
100.407050350756
100.405997815883
100.399608652347
100.392563759337
100.399037367479
100.396441790812
100.389535264658
100.394584104209
100.39693539016
100.393877197199
100.39625362611
100.393273614219
100.396291796474
100.397288658064
100.391210430985
100.395666081167
100.394191732711
100.396627936275
100.393011288387
100.39085948333
100.398643574579
100.402976722454
100.412882644282
100.424420441501
100.426918403513
100.423185497377
100.416312823947
100.42272254498
100.455841358958
100.484833417921
100.469726527301
100.49033772193
100.506748390111
100.471031050615
100.450026760148
100.454111553724
100.470947335265
100.472766478727
100.46976169629
100.502134905302
100.492619796144
100.5010862093
100.487049257988
100.493936375684
100.484386074173
100.483448272287
100.4886786229
100.484103020417
100.495658183556
100.476874639002
100.491309037283
100.487393111459
100.489226685248
100.492810458553
100.502727394534
100.513633987012
100.515766081981
100.499642834344
100.498490316533
100.500762220278
100.505027880688
100.490462116991
100.460950193902
100.428593832633
100.430096707829
100.439063883232
100.445553473093
100.444141724483
100.435723467194
100.424301115545
100.414118046356
100.414922486675
100.397889459873
100.390374361154
100.399831863028
100.403017671732
100.414341007958
100.41902027024
100.413360499037
100.402343854489
100.414834467807
100.420368339025
100.416593166215
100.416481366574
100.412024278081
100.457868863717
100.458473105357
100.462336849975
100.417187621795
100.424034603541
100.417506486966
100.415598645605
100.412542401894
100.410205247592
100.421847866541
100.443994653152
100.449691915405
100.447582183093
100.402577857641
100.405104191319
100.385230171568
100.392410914998
100.40805287597
100.411874718821
100.404099274117
100.388289423687
100.392057699959
100.396836088028
100.41025501172
100.416564875809
100.429317719389
100.459745205167
100.494307764954
100.492167598562
100.476430230226
100.480117565806
100.481938431716
100.492963033092
100.498060319063
100.484373114735
100.485331434225
100.478338939695
100.506223443521
100.503553647131
100.506804370892
100.501364192636
100.486197113238
100.486375408099
100.499529878409
100.497024380317
100.492425509742
100.493111487438
100.49616736859
100.494320977299
100.495393475059
100.476656010545
100.485787659118
100.462685993656
100.448823501398
100.447410683442
100.449703249371
100.462754542474
100.442024615066
100.447257387568
100.444904211683
100.442345807176
100.438025682725
100.435069285591
100.464650521232
100.470192037879
100.470975712504
100.470073502552
100.462558382733
100.462895143405
100.463797286124
100.463922691756
100.464787327787
100.46586606616
100.467767725989
100.466074456553
100.46558328281
100.465848673773
100.464454989214
100.462558546625
100.460608435896
100.461131315273
100.462907499647
100.461425285754
100.458853762582
100.457498898683
100.456949252563
100.455776021665
100.459875315858
100.462195775549
100.460264473544
100.463331244791
100.463895452493
100.465750726562
100.467218507434
100.468564994017
100.468086478945
100.468255763535
100.46770081547
100.467317298011
100.466716982302
100.465515065537
100.464982519412
100.464441429749
100.464021394021
100.464143730989
100.463890376453
100.463771030151
100.463838544927
100.463915484657
100.46434190509
100.464421667247
100.464578330986
100.464469914873
100.464361371551
100.464186678879
100.463718870527
100.463871037754
100.463589344858
100.462984463523
100.462299113109
100.463434651371
100.464151945345
100.464698433702
100.463676697229
100.464537588634
100.466343569024
100.465525309719
100.467896036494
100.467073239074
100.467791481324
100.467614936038
100.467627270181
100.46805565075
100.467384661157
100.467719955354
100.467114205576
100.466443569015
100.466912325314
100.465732281893
100.466792171008
100.467785517616
100.468749105123
100.470060330227
100.469556809283
100.469220304814
100.466309299312
100.465358267814
100.464713142288
100.46717724378
100.468941862559
100.46973690018
100.470761506124
100.471479235744
100.472458527541
100.472752297162
100.472657499077
100.469560010137
100.471310586236
100.472143407242
100.47203271316
100.471357911176
100.469421831039
100.468037113507
100.465774523229
100.463822913642
100.466843092348
100.467137094158
100.466113336953
100.465827870289
100.466775244196
100.466853196529
100.466577468421
100.466974658889
100.465817764979
100.466249166094
100.465364738878
100.463968254521
100.464600019287
100.464599788832
100.462997487025
100.462965452814
100.461668899228
100.461940867756
100.463541172108
100.461577151261
100.460425880087
100.460089971571
100.461395675119
100.461964116026
100.462392211093
100.46370025945
100.463649324504
100.464965426489
100.464579695689
100.465441989557
100.465480434919
100.468373451011
100.465299131089
100.467215734913
100.469892097968
100.471519732021
100.472399471271
100.473249427861
100.474944316767
100.47297864629
100.473925955394
100.472423812959
100.46912551089
100.464726603655
100.469622014713
100.466448143328
100.464216003565
100.463356441366
100.455909533154
100.457199373717
100.456412192984
100.463046308992
100.460286936449
100.462288020456
100.460991485594
100.458694744946
100.460782777858
100.458378871678
100.45686562957
100.459196590195
100.456198125721
100.455580074151
100.457858140707
100.45572530185
100.456232020864
100.456310680755
100.456885082892
100.456710574171
100.460607725177
100.463250686447
100.460452678461
100.464666372721
100.462893139862
100.46345905594
100.463267029786
100.463812740646
100.463890466395
100.463255979842
100.463679927499
100.464637742273
100.465016725743
100.464811950879
100.464827684467
100.464445086192
100.464345955914
100.463849544963
100.464095265132
100.464477320616
100.465045294426
100.465105079438
100.465161898336
100.465199303782
100.464866442478
100.463595413821
100.463689069027
100.46426787258
100.463378814222
100.461921687959
100.462844805126
100.463381208642
100.462413093051
100.460220740978
100.461091969102
100.464392717968
100.464192921805
100.462742181407
100.459628053903
100.4611444114
100.464683741131
100.464224494235
100.464078314158
100.463718165001
100.462781934436
100.46185732769
100.462040130462
100.462829660463
100.462993602136
100.463659924208
100.464213812924
100.465023533768
100.465654206159
100.465397344551
100.466071182886
100.466451580391
100.466626230412
100.467197480623
100.466859801513
100.467299112464
100.466230301103
100.46481492038
100.463489921856
100.463536725043
100.462526662334
100.464167697414
100.46545969766
100.466788506688
100.46791344035
100.467781909658
100.46814845538
100.467700643631
100.46766517546
100.46720308349
100.465862999612
100.465466194175
100.464819608988
100.464535713359
100.46437214549
100.463920652652
100.463722442694
100.463932559953
100.463519365664
100.463498732808
100.462984206194
100.462526450167
100.463041411157
100.464049036591
100.466548373023
100.465165081938
100.465731757146
100.466385787857
100.467055386212
100.467074217368
100.466727012165
100.465738873306
100.464297675893
100.462310016178
100.46316790066
100.4636459543
100.464077357184
100.46354205784
100.464220168919
100.465433679454
100.466422637642
100.467016204981
100.467680996684
100.468335909274
100.468266720752
100.468384349231
100.467781916017
100.466776148326
100.466065685171
100.465491464307
100.465148904258
100.464983699993
100.46477444565
100.464304128093
100.464474567502
100.464959233228
100.464732626449
100.465204231475
100.465266943971
100.465633691263
100.465888934635
100.465629949042
100.465330414448
100.46468882931
100.463659016109
100.463149175217
100.464614932479
100.464705850426
100.463730790531
100.46496467047
100.462041219319
100.460191635401
100.454366303681
100.449048884795
100.452542963811
100.451806126425
100.45056982309
100.44791296749
100.447069332085
100.449376912476
100.450492645252
100.450437638143
100.452658647575
100.453217799256
100.454900850222
100.454180838394
100.456171043986
100.445792537279
100.448607097015
100.451059578251
100.454301479076
100.459447413862
100.465020756915
100.469244858863
100.465578277805
100.461111529685
100.446254145994
100.430905652692
100.452963499621
100.445489220602
100.437741535629
100.434527687732
100.434073348692
100.432008434715
100.420430911216
100.43285082924
100.44700243253
100.440487277924
100.446613207855
100.441612168854
100.437664336651
100.443976826832
100.437881586907
100.436793893317
100.442336445831
100.435130931213
100.437509601375
100.433005917084
100.441163103271
100.436672847473
100.444577005766
100.446108836754
100.45076463308
100.45619724404
100.460856026859
100.465427895816
100.465448336729
100.464546331821
100.464944950405
100.465498333623
100.463075460302
100.4635764037
100.466205994405
100.466458298233
100.464773172444
100.464352592651
100.46308483904
100.461420887298
100.453388481564
100.44015199245
100.427249933523
100.418120182675
100.410209770812
100.419804123795
100.41455364913
100.417595499517
100.41043042786
100.407383844659
100.40548906434
100.406271588099
100.409599321885
100.410046433035
100.417631979612
100.390057462141
100.380385681716
100.385249967434
100.392651561098
100.414170986288
100.416724181656
100.401219413516
100.38512905995
100.38066331645
100.351188477046
100.355545868767
100.3600644234
100.373562680156
100.365367384598
100.344938524213
100.30995350242
100.292551242569
100.328447818663
100.315650904965
100.311918238414
100.320037980205
100.348973809785
100.354175896743
100.341247521833
100.366713047043
100.387856772473
100.386853333894
100.384592378208
100.384002506613
100.382882461259
100.373801342005
100.397967237849
100.38038809987
100.394348068683
100.390664676716
100.396692980094
100.404924131365
100.417694007118
100.442867930445
100.449762955343
100.45765474176
100.464381493748
100.462918646243
100.456350486242
100.448085164178
100.425252068971
100.406746692208
100.372449609924
100.349491622672
100.335655782009
100.327983546875
100.326940222913
100.344784981746
100.334255091479
100.337522537601
100.326620174565
100.329618214173
100.328742928047
100.329098472255
100.335132134187
100.29507296117
100.286075748711
100.296911251654
100.325472743934
100.369840901517
100.398594185788
100.421915074064
100.440211649931
100.449948319036
100.455188267485
100.457098798732
100.456533690321
100.463809358544
100.49686304083
100.480157963876
100.475179329774
100.474479461449
100.477580510077
100.476785507957
100.482083625721
100.500186356323
100.487667192466
100.476713870382
100.474019391716
100.446814249961
100.429173146025
100.42840751462
100.433040475954
100.449498998341
100.437502947651
100.431846538312
100.426903962503
100.41668610503
100.417683914242
100.429133217864
100.430761738738
100.420100809333
100.422928231683
100.4339438924
100.438154834396
100.440335970403
100.451583657509
100.415945715567
100.414044107518
100.410380682824
100.403340757964
100.404009961755
100.413123661648
100.406152095252
100.404610862415
100.39789800724
100.392303305678
100.399423452069
100.405754370164
100.456081583712
100.462533219236
100.460144693313
100.463548241957
100.461308512387
100.469224515797
100.468090697164
100.470804620104
100.470678445915
100.4692918152
100.467908391417
100.468643863602
100.463803030139
100.466475673512
100.466734269146
100.467440666559
100.467130850955
100.467502355909
100.46793646702
100.467702046987
100.467167809836
100.466731439525
100.467310025404
100.4677524127
100.467040793105
100.469113656394
100.46997699008
100.470493098607
100.468130024189
100.469737931535
100.464553696356
100.461671302286
100.462551009532
100.4633284467
100.464791047716
100.470722502829
100.467190015472
100.465667492806
100.464174136623
100.466389394837
100.468070196915
100.470563956642
100.470994904306
100.471504237958
100.472315193682
100.471385594929
100.471407695577
100.471850377727
100.471605190817
100.470005511056
100.470239697164
100.471981191215
100.472975085576
100.471160099379
100.470202860903
100.47171344502
100.47317785009
100.472680832255
100.471651744558
100.471091417973
100.471580744291
100.471716322996
100.471976510691
100.471936879197
100.470770225927
100.469959246548
100.468803142942
100.468618570549
100.46832961848
100.468157388257
100.467848629978
100.468074135562
100.467633474173
100.467793709018
100.467812843603
100.468020959113
100.468142351837
100.46837068655
100.468499231074
100.468658986893
100.468792815266
100.469411385374
100.469684175138
100.469818814955
100.470383249101
100.470893786065
100.471200809436
100.471624867963
100.47194453592
100.472318248802
100.471709683195
100.471131976738
100.470803433966
100.470437784046
100.470331708723
100.470655913722
100.470805636606
100.471388678203
100.472275160047
100.472786829432
100.473402608111
100.473937964073
100.472833375299
100.474105399587
100.473215381599
100.472407078103
100.471596050104
100.471916887399
100.471826326082
100.471093034367
100.470741833883
100.470558589553
100.470556866279
100.469830730584
100.469566084794
100.469965880003
100.469509921575
100.468941613274
100.468639987634
100.469163465396
100.468676941149
100.468464492464
100.46818999991
100.467988822299
100.467916089122
100.467664294357
100.467581931056
100.467459685584
100.467275677143
100.467155277519
100.46702426994
100.46711701373
100.467206722024
100.46777497993
100.46846294158
100.468501506505
100.468399600749
100.468101394454
100.468802782943
100.468589554911
100.468516939792
100.468631139297
100.468974873146
100.469224444952
100.468903373509
100.468599631487
100.467834328162
100.467463549364
100.467217079915
100.467259488702
100.467449660751
100.467625578583
100.467766470339
100.467802585285
100.467950786105
100.468105837451
100.468397729354
100.468701464052
100.468659580915
100.468984538841
100.46945576415
100.468854405492
100.468988061431
100.468911041097
100.468816871823
100.468770725947
100.467322841269
100.468353342234
100.469601468062
100.468756894702
100.467558259967
100.468453743395
100.46712446148
100.466721786759
100.46770531793
100.467495616464
100.467311934665
100.467637542174
100.46726230651
100.467441830069
100.467743886184
100.468770755857
100.467826710267
100.468560821305
100.46867111448
100.468215498326
100.468405952318
100.468291232115
100.468226587633
100.468140040185
100.46792924707
100.467914161012
100.467746182631
100.467818897422
100.467482054359
100.467560015156
100.46751516155
100.468022601227
100.468222875011
100.469353306651
100.469535524316
100.469692647277
100.469926332973
100.468969973682
100.468784118793
100.468724266477
100.468402436234
100.468065485257
100.467585298235
100.46702956798
100.466066210502
100.466747528253
100.467378023784
100.467749731871
100.468107192369
100.46779275612
100.467222867188
100.466921236012
100.4666390711
100.466785890844
100.466804984113
100.465743019246
100.466716371888
100.466523904164
100.466966231588
100.467643864985
100.467524180328
100.467129345532
100.466820168928
100.467049469809
100.466671177387
100.467310464951
100.469393619149
100.4693853957
100.467279899001
100.468008205257
100.468293139472
100.464516599742
100.462384565504
100.461763144056
100.460971487322
100.460505858723
100.459197185249
100.458366612016
100.457723344495
100.457361410261
100.457162055545
100.457530216181
100.457836871925
100.458537736431
100.459395860274
100.459183307998
100.460084253835
100.459349744875
100.45884515064
100.458291661081
100.45846107556
100.459992782972
100.459737469006
100.458678464156
100.458935057943
100.460468579525
100.460768355793
100.462558706138
100.466373798056
100.462608964057
100.464569033294
100.465658216229
100.467918661714
100.469551213055
100.470738617709
100.465516621977
100.463634212668
100.46229944066
100.461505427371
100.463117113643
100.462974072255
100.462738734944
100.464140726424
100.46305985428
100.462740342467
100.462740387799
100.461687064355
100.461801541131
100.461574775363
100.46044396101
100.459448053094
100.458592455949
100.45799919166
100.457823303261
100.457357379762
100.457031082891
100.457730574833
100.458511109305
100.459194456534
100.460466528504
100.459795796705
100.460858665384
100.461731440661
100.462930454493
100.462517913614
100.462028527927
100.461199604547
100.460181056007
100.459287392465
100.459290084751
100.459216648677
100.459063288688
100.459001754668
100.4593229082
100.458572760559
100.458178099681
100.458181489468
100.457824529871
100.458924058701
100.458727339295
100.459057051124
100.459162924727
100.458681588529
100.458253224929
100.45819742894
100.458633657303
100.458656591398
100.458388265603
100.459383331911
100.460155136579
100.460616039903
100.460399341713
100.460210213186
100.460411342521
100.459873159084
100.459375605283
100.459659912138
100.459885116241
100.460068679178
100.46014710067
100.460760064766
100.45979987805
100.460023595395
100.460600250772
100.461606437414
100.461935398901
100.461695647374
100.461044242883
100.461029344203
100.460529507151
100.461214066605
100.461213493546
100.461698002169
100.461574735605
100.46140418873
100.461863217966
100.46172755742
100.461198486428
100.461221780562
100.46108499228
100.460650748286
100.460760959443
100.460959202731
100.460264248145
100.460166477453
100.4601792856
100.460516735053
100.460305986922
100.459773886413
100.459153292865
100.458832413188
100.459981099597
100.460262821142
100.45988873305
100.458808651758
100.458101285394
100.458673913784
100.458468356438
100.457481377158
100.457399243916
100.45811609119
100.458396171403
100.458296139491
100.457176466702
100.457154994559
100.457134670748
100.457176028767
100.457628779267
100.458360638503
100.45872354815
100.458310340409
100.457682010042
100.457499723369
100.458232366865
100.458290260606
100.458886317376
100.45818157121
100.458736064061
100.459902087146
100.460765992492
100.461811029743
100.463004934505
100.463178459048
100.463282017976
100.462463720113
100.461959483674
100.461117615642
100.462161623574
100.461539772673
100.461735395515
100.461872583544
100.461714618735
100.461399727297
100.461283737206
100.46143490358
100.461132249687
100.46088956265
100.460935512518
100.461335028758
100.460848028131
100.460711145431
100.460470970078
100.461097099256
100.461176831087
100.461209738414
100.461112626866
100.460581421942
100.46074767982
100.461370615403
100.462453668949
100.462659163706
100.462574004807
100.460981730176
100.460055142936
100.459604246594
100.459758695705
100.459078414245
100.45785331981
100.457155940138
100.457106338779
100.457467431868
100.458436866501
100.457124648289
100.459442641378
100.458487464098
100.458168101154
100.45960683957
100.461128661859
100.462617415683
100.464166447123
100.465790456304
100.467108551568
100.46916250647
100.469253723474
100.474676475804
100.47033113203
100.485324975607
100.48170568112
100.449569037571
100.417561073981
100.380035914208
100.359342793749
100.373547862454
100.370878844232
100.369077748977
100.369428168226
100.370256517512
100.371129468851
100.372229574419
100.373635909588
100.375182459496
100.376586492494
100.377704686359
100.378501359998
100.378938271691
100.377723658447
100.376352025955
100.374855241796
100.373315086798
100.371826228514
100.370459359398
100.369283860573
100.368306721925
100.367500510453
100.36682967644
100.366273060274
100.365854281626
100.365670177182
100.365823075197
100.366417309021
100.36760177473
100.369235334077
100.370903349412
100.372041206609
100.372387560771
100.372331436407
100.372481819642
100.372538776105
100.372552786238
100.372606411294
100.372657988853
100.372697794732
100.372717861087
100.372910131249
100.372969648379
100.373035642156
100.372910868718
100.372850345911
100.372796928532
100.372707788924
100.372657953789
100.372641881436
100.372591505519
100.372591822602
100.372521310263
100.372466335881
100.372453665117
100.372411230568
100.372323646053
100.372238669
100.372219102216
100.372344678821
100.372374349647
100.372396217548
100.372447126071
100.372501329135
100.37249808059
100.372633486088
100.372660191956
100.372811365281
100.37268641947
100.372604813458
100.372417587738
100.372477823399
100.372400670156
100.372612675478
100.37253992542
100.372530572554
100.37241301403
100.372388914351
100.372345596316
100.372299507362
100.372260655095
100.372261267808
100.37213566788
100.372061246589
100.371933845152
100.37168969082
100.371954091394
100.372085164549
100.372102515995
100.372205918911
100.372200543183
100.372218638762
100.372290095049
100.372345219904
100.37234658848
100.372480704357
100.372470162269
100.372440532156
100.372394842357
100.3722390347
100.372383368611
100.372261482512
100.37238921416
100.372400294807
100.372272234424
100.372285025912
100.372244642326
100.372196830892
100.372143120549
100.372145193228
100.372045280825
100.372019484568
100.371878023745
100.371506499214
100.371918582005
100.372017742181
100.372028875443
100.372091798145
100.372098202705
100.372146916768
100.372172296846
100.372212806649
100.372164361927
100.372267904165
100.372183912353
100.372227893102
100.37227581767