/*--------------------------------*- C++ -*----------------------------------*\
| =========                 |                                                 |
| \\      /  F ield         | OpenFOAM: The Open Source CFD Toolbox           |
|  \\    /   O peration     | Version:  v1612+                                |
|   \\  /    A nd           | Web:      www.OpenFOAM.com                      |
|    \\/     M anipulation  |                                                 |
\*---------------------------------------------------------------------------*/
FoamFile
{
    version     2.0;
    format      ascii;
    class       volScalarField;
    location    "0.1";
    object      p;
}
// * * * * * * * * * * * * * * * * * * * * * * * * * * * * * * * * * * * * * //

dimensions      [0 2 -2 0 0 0 0];

internalField   nonuniform List<scalar> 
80212
(
100.338243252459
100.33763301244
100.337586498884
100.340344099029
100.34389313721
100.343869241134
100.344185132288
100.344106537774
100.344628375566
100.346136761045
100.345463229235
100.34449880571
100.344811900788
100.34593368638
100.346555360902
100.344782100444
100.344210170409
100.34419586331
100.343878577589
100.343893821518
100.344460393296
100.344688158647
100.345567290331
100.347317912647
100.345725050591
100.343657113684
100.342709603524
100.342530861432
100.342963212278
100.343332132021
100.345930378527
100.345723023775
100.344978129957
100.344591476213
100.343160194202
100.34345662023
100.344178934602
100.343398841485
100.344849266621
100.346814720529
100.346735754631
100.344763631962
100.343347995029
100.344159470073
100.343442383121
100.34314032548
100.344564665277
100.344952800693
100.345688131637
100.345917912923
100.343323050418
100.342957685484
100.342532717609
100.342712461735
100.343659949418
100.345727493776
100.347318928904
100.345567690597
100.344693381459
100.344466243219
100.341374775095
100.341690831185
100.341145709956
100.341389301113
100.341125746446
100.341029261385
100.340592802064
100.340328616077
100.340820977526
100.340768283099
100.341122778583
100.341036512361
100.340824385477
100.341348034617
100.340655782338
100.340206176212
100.340453359079
100.340435925324
100.340510210164
100.340241994902
100.34023594465
100.340503985183
100.340428462194
100.340452188284
100.340223922161
100.340696542737
100.341389882881
100.340861827637
100.341059904305
100.341134098187
100.340771225106
100.340821384551
100.340325621426
100.340592853288
100.341026902534
100.341119632449
100.341385141281
100.341141607006
100.341683190203
100.341367643564
100.340348104672
100.340438882672
100.341619969059
100.342040054871
100.341484433043
100.34212280005
100.341609934563
100.341369450544
100.341531314302
100.341913130626
100.342301442375
100.341540645802
100.34207542798
100.341643486309
100.340447759665
100.337679258106
100.339268751
100.33682118683
100.336900268229
100.337040872418
100.339759808375
100.338082260052
100.336112018537
100.337169827448
100.338120494482
100.338237006994
100.337942489952
100.338872833731
100.339062431613
100.337953285662
100.338283406023
100.33817524025
100.338130129497
100.337840297464
100.336703322703
100.336089300839
100.337929535137
100.337274499965
100.336316455831
100.336306966144
100.337278167528
100.337905944177
100.336066901742
100.336708154399
100.337897313629
100.338191700549
100.338233679061
100.338318738476
100.337965942884
100.339062648013
100.33887228416
100.337941145764
100.33823583749
100.338117366101
100.33716566743
100.33610522078
100.338077527545
100.339749203997
100.338924250496
100.337585441596
100.337652348784
100.339217468872
100.34036128121
100.338521474081
100.336618739584
100.337372447657
100.338183281857
100.338276399477
100.337565694973
100.336804182937
100.338673396194
100.340452803254
100.336835654868
100.3276765992
100.328227664724
100.328369653747
100.327929951044
100.328762004318
100.337107730564
100.337497078959
100.337528882321
100.338369957118
100.340070572107
100.337470301859
100.336676470472
100.335487375004
100.338706970835
100.336439099843
100.335879490778
100.334544139895
100.335688658473
100.335176353845
100.339098952918
100.339144115778
100.335205803661
100.335776939483
100.334907869525
100.336027431591
100.334501402554
100.337103928707
100.337617243332
100.338138827441
100.336581348027
100.338831744966
100.335524072284
100.336675876399
100.337470616155
100.337098616643
100.33702652626
100.336887768737
100.336823938922
100.336845605852
100.336640642188
100.336613013874
100.328576620653
100.32706006546
100.32676797965
100.327036411458
100.32706739222
100.326837265759
100.327192047366
100.327284956405
100.328648150608
100.328526719138
100.328711812526
100.32974349668
100.334895406645
100.334295260328
100.330929327041
100.329248848251
100.328156693258
100.328250632268
100.330103389226
100.329648319095
100.329615534391
100.330030279977
100.329649976626
100.328638150135
100.328492883134
100.328630554428
100.328756246733
100.327927627977
100.328372899415
100.328241189027
100.32770662525
100.328610739832
100.327066356863
100.327634749643
100.327634454059
100.327608407175
100.327732455903
100.327742950594
100.327669520742
100.327779288246
100.327881457766
100.328050846269
100.327453653235
100.327764488523
100.328009117232
100.32805080392
100.328032524247
100.32832337279
100.328603202457
100.328555109624
100.328131568623
100.328039081078
100.32768731739
100.327415214375
100.327266156044
100.327181929988
100.326830913092
100.327073839826
100.327038558598
100.326765867956
100.327595374883
100.327458322877
100.327465663583
100.327466131661
100.327457842146
100.327561731077
100.327576879316
100.327556643584
100.327622965652
100.327616301315
100.327729775381
100.327606344692
100.327572044557
100.327519596801
100.327628235486
100.32763509324
100.328312122227
100.327956297865
100.327971121791
100.327971460164
100.328041726907
100.327875207951
100.327773637213
100.327670369092
100.327739964845
100.327725367987
100.327563427709
100.326552368547
100.326470936531
100.326495882797
100.326494696611
100.326466326405
100.326547507166
100.326566710421
100.326560330777
100.326649176915
100.32661059229
100.326673702181
100.32659366683
100.326601526322
100.326566914095
100.326617208384
100.326628395681
100.326600229382
100.326648117992
100.327590807005
100.327607843746
100.327731978906
100.327620859091
100.3276216605
100.327559351525
100.327575388511
100.326570127001
100.325414521674
100.325383833769
100.325323292886
100.325347999226
100.325346375129
100.32531924537
100.325377036752
100.325405374024
100.325409798914
100.325515587648
100.325505987596
100.325561445789
100.32552443454
100.325571687829
100.325562250579
100.325601236764
100.325593621005
100.325551695655
100.325572102238
100.325527582695
100.326616901394
100.326692596175
100.326615285152
100.326652526559
100.326567389798
100.325418802794
100.324341269137
100.32431712989
100.324271936024
100.324207596621
100.32422730495
100.324225105009
100.324203121375
100.324264632235
100.324307650758
100.32432855571
100.324464174488
100.324482205709
100.324544340585
100.324533432345
100.324603019406
100.324605279364
100.324653985798
100.324654684363
100.324601785069
100.324602728062
100.324542026914
100.3245652011
100.324497282684
100.324480326394
100.323420636037
100.323221224484
100.323182255667
100.323111865228
100.323016756519
100.323035826421
100.323032539302
100.323011098176
100.323103469223
100.3231715734
100.32320810772
100.323401126445
100.323446321813
100.323520057764
100.323525216779
100.323626864172
100.323631385978
100.323718454456
100.323753494955
100.323723705468
100.323710754491
100.323574281163
100.323550629685
100.323467783293
100.322262595905
100.322161085358
100.321889223521
100.32183994714
100.321724410321
100.32156249265
100.321590748892
100.321586225954
100.32155518341
100.321714455985
100.321826892164
100.321869719644
100.322141993377
100.32223761436
100.322338107302
100.322376172012
100.322538856858
100.322517594232
100.32270702793
100.322755790715
100.322646261962
100.322651273622
100.32245168394
100.322376392225
100.320813157714
100.320681736188
100.320492410164
100.320035014409
100.320045805601
100.319872126551
100.319581667492
100.31966506983
100.319660539749
100.319574090358
100.319859217123
100.320030781736
100.320011625303
100.320473708573
100.320655548798
100.320781058799
100.320908445415
100.321258143397
100.321108497218
100.321434745772
100.321464372083
100.321182767005
100.321313990006
100.320961593541
100.318827062604
100.318333431645
100.318226809451
100.31801278105
100.31721419794
100.317341777023
100.317125687443
100.31652222377
100.316861168285
100.316852608768
100.316509050083
100.317113840663
100.317327525881
100.317211542883
100.317994336255
100.318202383359
100.318309101647
100.318804555548
100.31953382487
100.318975850274
100.319702461908
100.319720300786
100.319002376426
100.319537894122
100.31763908968
100.315845951173
100.312985171994
100.313619587251
100.313487865349
100.311820538994
100.312461413976
100.312168044687
100.31086012512
100.311927964362
100.311928443381
100.310862986278
100.31216261866
100.312447181434
100.311803779485
100.313489257815
100.313594394847
100.312948527018
100.315830097789
100.317628815038
100.315975867143
100.317307790779
100.317329367402
100.315987339525
100.312989264407
100.30810838405
100.303957610871
100.304126835471
100.307972146305
100.307493343364
100.304077151665
100.305536319416
100.305291234661
100.302720255426
100.304932215911
100.304954421369
100.302741397324
100.305290294835
100.305524064612
100.304048525458
100.307512639099
100.307991261508
100.304068361584
100.303945353757
100.308162281963
100.313004040788
100.307051224306
100.305639659542
100.305577865601
100.306932565882
100.318998186542
100.323288382829
100.3229832178
100.319506172266
100.320792615994
100.319184296465
100.316355696102
100.316981358868
100.316878517249
100.314535787946
100.315434479184
100.315445873662
100.314547598525
100.31688063068
100.316978529171
100.316314418465
100.319153518108
100.320768375504
100.319489504188
100.322976439111
100.323306149849
100.319026874925
100.323747840601
100.323741127729
100.360415980128
100.357408741715
100.357828345902
100.35800336454
100.356429133076
100.353768289352
100.350741697277
100.354089003411
100.347630179553
100.348898909359
100.348388167786
100.358095678795
100.376117099359
100.376168715753
100.358084507518
100.3425398957
100.342544531088
100.390136190277
100.426409942909
100.40873279906
100.408837809361
100.416907167741
100.407759949992
100.391617940347
100.348409470378
100.348897449347
100.347638034941
100.354052162152
100.350637377603
100.353682439264
100.356402292612
100.357965677873
100.357805475485
100.357365946037
100.360401851692
100.398832837975
100.398855649963
100.415241537672
100.405469936228
100.402453725102
100.400983374331
100.402885212495
100.411095701828
100.392054874161
100.388534945777
100.404625498828
100.393068676249
100.40239461054
100.40426171507
100.407699878975
100.416786821301
100.449440959658
100.443352020672
100.443377754185
100.44952600797
100.436179870621
100.436794285765
100.438815784356
100.402370183945
100.388164552682
100.404302273994
100.439941613372
100.459808323988
100.472522942625
100.478780236524
100.482885338233
100.48675260096
100.488134383811
100.487884963974
100.48627537989
100.483382174342
100.480505068131
100.47847276782
100.478462309997
100.482219057068
100.489555461954
100.498238161308
100.505672317686
100.510432370078
100.512928020139
100.514164343845
100.514733859744
100.515044677955
100.515204750947
100.515426259597
100.514645201384
100.52111482967
100.505227502788
100.46516243017
100.426291009788
100.38408175888
100.360895116943
100.376066567346
100.37650639233
100.374800042504
100.37483915081
100.375875737708
100.376857661274
100.377653734425
100.378381629683
100.379026472905
100.379484815681
100.379745833443
100.379877726005
100.379928219562
100.3795984234
100.37917232243
100.378656457743
100.378073763062
100.377455304514
100.376836176424
100.376253021353
100.375743527105
100.375324955397
100.374998794396
100.374747597659
100.374547972289
100.374382401404
100.374236365328
100.374093745768
100.373940950727
100.373767857604
100.373567924221
100.373333508661
100.373082235543
100.37284581197
100.372790746269
100.373019856613
100.373362610515
100.373538290818
100.37360576706
100.373621053882
100.373685151229
100.373736697943
100.37375188082
100.373813854915
100.373840499349
100.373812662626
100.373640367759
100.373549650682
100.373677568773
100.373649073195
100.373649087804
100.373751713887
100.373658553697
100.373725978581
100.373797246524
100.373780360142
100.373718017847
100.373722451181
100.373616467167
100.373646982933
100.373635324906
100.373543222197
100.373503160699
100.37333569971
100.372941292715
100.373341458321
100.373483247573
100.373525510688
100.373609593538
100.373600784462
100.373709172843
100.373693968689
100.373744541839
100.373757691314
100.37363643313
100.373662700541
100.373745858887
100.373685223175
100.37367887932
100.373652195948
100.373673420368
100.373571822846
100.37357471489
100.373492377531
100.373439067231
100.37331835256
100.373140908357
100.372800246765
100.372436092238
100.372834921055
100.3731541661
100.373298030243
100.373411677222
100.373456198323
100.373548554645
100.373555258135
100.37363353255
100.373634913897
100.37367994384
100.373647406382
100.373493579269
100.373127490397
100.372861605147
100.373093745547
100.373175660216
100.373211068404
100.373441730689
100.373359295131
100.373383208859
100.373590893071
100.373656412052
100.373620162768
100.37359985103
100.373510789756
100.37352661584
100.373423036589
100.373389540565
100.373266817285
100.373134784307
100.372818642758
100.372294246565
100.372835237433
100.373149852801
100.37325972879
100.373377530027
100.373392911274
100.373479485232
100.373542685808
100.373549081585
100.373600024347
100.373625740338
100.373556539619
100.373433561637
100.373389218536
100.373599431784
100.373500329502
100.37362371253
100.373505097392
100.373584814445
100.373574553225
100.37353553883
100.373542949391
100.373415073203
100.37344188022
100.373435091893
100.373326234208
100.373251232025
100.373137954985
100.372824139325
100.372250361653
100.372881982786
100.37316659153
100.373259019543
100.373311668567
100.373414614868
100.373410019585
100.373529516687
100.373510110819
100.373531777293
100.373542457371
100.373509570973
100.373575444056
100.373557693227
100.373264427667
100.372963741547
100.373095761168
100.373395569471
100.373308864631
100.373542997254
100.373572645376
100.373491487415
100.373454165335
100.373502140658
100.373408988756
100.373394583415
100.373302566484
100.373253919704
100.373174591068
100.372914054028
100.372305343683
100.373030912496
100.373196230271
100.373267400391
100.373276545762
100.373371505833
100.373382260108
100.373457112018
100.373421058494
100.373409104947
100.373455493499
100.373501959766
100.373423911581
100.373372459091
100.373558283431
100.373527639544
100.373468992046
100.373422910828
100.373492344905
100.373450353803
100.373327103693
100.372845377643
100.372318007603
100.372821077459
100.372892870622
100.373330256387
100.373222543719
100.373446350713
100.373482909772
100.373405057778
100.373392189491
100.373416181688
100.37333418792
100.373318450954
100.37334490024
100.373341381756
100.373242670344
100.373195704737
100.373082470257
100.372835863186
100.372281482115
100.371800875268
100.37256962169
100.372967304352
100.373106497813
100.373208710291
100.373244914284
100.373331176514
100.373323267936
100.373310372628
100.373390089256
100.373376887636
100.3733515564
100.373390713499
100.373436483358
100.373369376265
100.373260542813
100.373474330406
100.373456234043
100.373414432335
100.373382063592
100.373422288394
100.373369640036
100.373119263512
100.37273683763
100.37288771316
100.373230134638
100.373149224183
100.373394571523
100.373436202057
100.373411441603
100.373358007761
100.37337806388
100.373373499891
100.373289784496
100.373273507828
100.373302513453
100.373221438549
100.373218122849
100.373116327539
100.373012208094
100.372656614287
100.371974473011
100.372851986004
100.373076324136
100.373156789747
100.373207002375
100.373303086952
100.373311693329
100.373214515287
100.373183138625
100.373102152533
100.37296926061
100.372667541882
100.37204980908
100.371570371164
100.372409166618
100.37285486563
100.373041160902
100.373136451959
100.373205818538
100.37322464412
100.373298589208
100.373355479548
100.373397572847
100.37336699544
100.373409763615
100.373422012007
100.373352002473
100.373200573264
100.373421211098
100.373445152801
100.373415760972
100.373398372789
100.373448309767
100.373359449344
100.373150122426
100.372684362504
100.373207977152
100.37322429082
100.373456591432
100.373375116212
100.373459144756
100.373416986794
100.373363606073
100.373398856859
100.373395283763
100.373304085195
100.373277588809
100.373300222492
100.373305357823
100.373207579468
100.373169726783
100.37308671818
100.372952131514
100.372526738413
100.371849282985
100.372794547122
100.37306248388
100.373135518605
100.373207695872
100.373215485345
100.373321684342
100.373304549807
100.373310185228
100.373285836771
100.37339401586
100.373412530782
100.373412518603
100.37347580679
100.373412926194
100.373231075543
100.372693992074
100.373259512209
100.3732724158
100.37349309275
100.373444016557
100.373491390354
100.373445897111
100.373383469115
100.373412154788
100.373315257185
100.373334633242
100.373223631357
100.373217673109
100.373175336717
100.373099369244
100.372968067152
100.372665490745
100.372001203173
100.371669441647
100.372445631433
100.372891523651
100.373056788107
100.373143345941
100.373216078725
100.373226276038
100.373328972703
100.373303393887
100.373414144373
100.373443600715
100.373444536556
100.373522060752
100.373488390641
100.373292674302
100.372820745463
100.37331514826
100.373516711298
100.373491990178
100.373545393828
100.373531353951
100.373489211915
100.373429059108
100.373431831547
100.373347205793
100.37336751096
100.373242595946
100.373254157686
100.373185830236
100.373112382666
100.373005885378
100.372619906077
100.37206132746
100.372923746329
100.373120201751
100.373173320042
100.373236182402
100.373246293738
100.373370197069
100.373318102073
100.373458128063
100.373442532217
100.373461810184
100.373417662201
100.373501340344
100.37355729497
100.373541076122
100.373340910607
100.372792116437
100.373275018847
100.373486527253
100.373536090695
100.373485905365
100.373475010234
100.373524203082
100.3734422261
100.373187642889
100.372671238899
100.373234474587
100.373243615271
100.373461505816
100.373478837959
100.373526823897
100.373506139556
100.373425244604
100.373455528975
100.373474756692
100.373366507959
100.37332523881
100.373349892884
100.37336305977
100.37326609645
100.373228993955
100.373166420885
100.373075024286
100.372880799254
100.372262088381
100.37188185928
100.372769352901
100.373071352889
100.373156848076
100.373211642445
100.373283284102
100.373275646334
100.37338791256
100.373385116321
100.373390404058
100.373328712844
100.373476175934
100.373465120875
100.373481836201
100.373421105651
100.373505700481
100.373540366772
100.373496888154
100.373326641414
100.372744332403
100.373268892105
100.373476048765
100.373527378593
100.373488663676
100.373488923423
100.373562174603
100.37350252258
100.373314382967
100.372811103652
100.373270986682
100.373375402575
100.373517682374
100.373556861171
100.373573659352
100.373527096326
100.373475816418
100.373469610926
100.373492276883
100.373399856292
100.373351305372
100.373375837804
100.373291451264
100.373279226382
100.373219848398
100.373143069569
100.372991639688
100.372711477811
100.372095171596
100.371837320573
100.372579602871
100.372970498192
100.373129639152
100.373225618809
100.373282664237
100.373301780371
100.373397180805
100.373421195247
100.373337257914
100.373339960494
100.373293472692
100.373251208668
100.373119594382
100.372774835741
100.372345481841
100.373077049223
100.373249597808
100.373316320305
100.373361220462
100.373363527253
100.373446055239
100.373402747737
100.373511832981
100.373484139092
100.373522588871
100.373485126911
100.373544320141
100.373596494396
100.373567769957
100.37333369983
100.373491188179
100.373561321501
100.373518699398
100.373572746299
100.373625709858
100.373568395273
100.373381049108
100.372930854882
100.373303136022
100.373526707052
100.373590026969
100.373541242861
100.373501835024
100.373502296502
100.373412746629
100.37343146003
100.37345658271
100.373374130473
100.373373494779
100.373311993176
100.373254761146
100.373107705969
100.372602132777
100.372401373972
100.373067427732
100.373254741916
100.373337514351
100.373389505051
100.373401252179
100.373482080131
100.373430642419
100.373546374196
100.373559768354
100.373582774672
100.373656790687
100.373605232316
100.373410237301
100.372951190066
100.373324550907
100.373539375921
100.373604874417
100.373556090423
100.373544429439
100.373495787932
100.373470934518
100.373459212455
100.373494274441
100.373414671544
100.373400221525
100.373345231124
100.373290738371
100.373127377764
100.37268681218
100.372590060668
100.373133512492
100.373309550015
100.373383391032
100.373427112622
100.373463454218
100.373456105799
100.373536265939
100.373508636329
100.373605385453
100.373617406268
100.373678090116
100.373619489009
100.373455778961
100.372990782684
100.373373503983
100.373574118793
100.373637406241
100.373580864385
100.373561575908
100.373625394119
100.373649084144
100.37371213146
100.373652835
100.373478168118
100.373077396642
100.373382146091
100.373610400339
100.373666787862
100.373609701454
100.373589689151
100.373533924781
100.373523844698
100.373574938885
100.37349315667
100.37349312757
100.373458613295
100.373415946089
100.373369798093
100.373219390546
100.372862249129
100.372835541156
100.373264576914
100.373409963973
100.373472425153
100.373507673831
100.373529630251
100.373522628235
100.373606260568
100.37357046903
100.373655553407
100.373679571296
100.37374760924
100.37370605993
100.373547548495
100.373142009182
100.37346265354
100.373652085671
100.373699845731
100.373641283419
100.373621395075
100.373688777008
100.373718152211
100.373785002955
100.373737136577
100.373601030451
100.373194925179
100.37348051186
100.373675580482
100.37374206392
100.373689225412
100.373659998946
100.373602817655
100.373587288486
100.373634955622
100.373553275416
100.373562247851
100.373548615289
100.373515532371
100.373472051839
100.373350482265
100.373196625249
100.373163412312
100.372744737969
100.372542691186
100.37245952981
100.372245092181
100.372171883998
100.371975201935
100.371986843977
100.371763764576
100.371811078478
100.371644245428
100.371650945172
100.37161681041
100.371556533557
100.371643555167
100.371517979371
100.371505675789
100.371663321618
100.371542039887
100.371636390672
100.371855320538
100.37184526065
100.371961585027
100.372141062504
100.37238512325
100.37262564928
100.37261476404
100.372326631277
100.372544137752
100.372767133482
100.372965383092
100.373130262606
100.373424233014
100.37360828934
100.373677648279
100.373716987632
100.373779043832
100.373791829352
100.373857986713
100.373885073144
100.373932304464
100.373909936127
100.37376539379
100.373615373897
100.373573774299
100.373294327591
100.372918892976
100.372576972303
100.372590312808
100.372744840674
100.372818292018
100.373280950869
100.373198316979
100.372881037802
100.372928661594
100.372889451125
100.372419756818
100.371824536695
100.371451722069
100.371653317873
100.371899489902
100.371886107715
100.37185002207
100.372204797881
100.372356987822
100.37239756795
100.37231431596
100.372053338153
100.372430931533
100.372954269452
100.373083834548
100.373405161503
100.37347409202
100.373506723505
100.373491848168
100.373512897546
100.373535282014
100.373560879963
100.373594372943
100.373632472328
100.373633406584
100.373671075803
100.373742322954
100.373737962719
100.373798304002
100.373834287339
100.373883295166
100.373861927568
100.373733291171
100.373687411515
100.37378260754
100.373848574376
100.373810778843
100.373801038582
100.373776856958
100.37381875117
100.373844915873
100.373820946165
100.373889798929
100.373909654398
100.373951444233
100.373926475795
100.373780083048
100.373643042502
100.373337524666
100.373006203888
100.372748926929
100.372656595155
100.372226482734
100.371804657334
100.371630747414
100.371617087341
100.371791279617
100.371671195576
100.371578284027
100.371540839168
100.370698794308
100.370397041098
100.370157854614
100.370107104467
100.369976144161
100.370139100558
100.370466190893
100.370614695481
100.370638404102
100.370177149407
100.370532515721
100.370855212693
100.371175683254
100.371547561795
100.373031310639
100.373193807383
100.373312044359
100.373320376724
100.373294088748
100.373338924181
100.373358529138
100.373385497685
100.373563932414
100.373550027698
100.373593963357
100.373624933321
100.373637384683
100.37370758853
100.373748598026
100.373812402385
100.373850924565
100.373855969927
100.373919464602
100.373938076777
100.373980187027
100.373954564423
100.373816070585
100.373672626391
100.373390533212
100.373083792853
100.372833516857
100.372452636135
100.372096776126
100.371903736605
100.371766819145
100.37129816081
100.371177758331
100.370990874016
100.370810167185
100.370623511707
100.370376669756
100.370241437458
100.370507275234
100.370809565052
100.3709737473
100.371129400913
100.370954103723
100.37108705128
100.371147099367
100.37076856857
100.371956708136
100.373051612324
100.373289718739
100.373439936728
100.373462556307
100.373507129896
100.373683100305
100.373746697933
100.373788071295
100.373824618551
100.37388498777
100.373889535299
100.373947411601
100.373962404946
100.374001202516
100.373967012289
100.373841554572
100.373692824443
100.373429407059
100.373147420359
100.372894855448
100.372566465384
100.372231720051
100.372033084121
100.371647105719
100.371590787706
100.371406384596
100.371230696964
100.37109188627
100.371043420235
100.370858351302
100.370642844036
100.370820169475
100.370973082576
100.370647670195
100.370720093499
100.37044779614
100.370127591266
100.369811232544
100.369536223651
100.369292303609
100.369022076527
100.369261559227
100.369664643164
100.369891600534
100.370183531497
100.370432772649
100.370333391326
100.37037872005
100.370305139001
100.37010774931
100.370505201715
100.371810443234
100.37307118278
100.373218708758
100.373252201573
100.373406190061
100.372929790956
100.373075624151
100.373256829317
100.373555563399
100.37371799803
100.373783266646
100.37382442445
100.373864662476
100.373919439928
100.373922756022
100.373985126326
100.373997865094
100.37403077599
100.373997853827
100.373870076856
100.373736306804
100.373485454696
100.373213225276
100.372989514783
100.372670003625
100.372359610955
100.372181275186
100.3718161745
100.371767166895
100.371633355429
100.371524618787
100.371472157358
100.371253144959
100.371118632206
100.371150493522
100.370913185707
100.370691439258
100.370467202975
100.370185508029
100.369890487748
100.369574588889
100.369824712324
100.370228266071
100.370517834995
100.370676101416
100.370889192306
100.370855216317
100.370895924941
100.370753950434
100.371023966536
100.370518645295
100.369389709124
100.369442934556
100.368728642417
100.367922015898
100.367008075062
100.366252511861
100.364717220187
100.365625727823
100.366773851542
100.367948493725
100.368870362037
100.369617840088
100.37019374341
100.370069448526
100.369595502141
100.369036128172
100.368366808857
100.36750337333
100.366289179839
100.365390145621
100.363085776397
100.359639774052
100.358250221455
100.362513999949
100.364129599076
100.363442828056
100.36089890033
100.35929179902
100.358680693572
100.35567214795
100.356975716748
100.359060765574
100.361717818853
100.363692208503
100.36514677158
100.365473235711
100.366948434727
100.368252631944
100.369281546285
100.370003509436
100.370644526739
100.37114101756
100.371584518623
100.37065986164
100.370613942434
100.370061490578
100.37194502271
100.371798066944
100.371482847718
100.371066931431
100.370549245582
100.369819772363
100.369319185276
100.36729639324
100.365692860174
100.365787900459
100.367500771562
100.367526656858
100.366352621855
100.362331461255
100.361288788609
100.360370743404
100.348412861736
100.352694577179
100.352036353387
100.35236359687
100.357673281558
100.356409755931
100.364007821358
100.36971612444
100.371784445507
100.371846294004
100.372008285597
100.372042203192
100.372387540817
100.372675312694
100.372904497992
100.373043568947
100.373218550992
100.373130749377
100.373284916567
100.37339013753
100.373602078424
100.373764554867
100.373802765056
100.373862547583
100.373902941704
100.373955162796
100.373954685741
100.374010805818
100.374021278674
100.374043668908
100.374010726791
100.373885783003
100.37376758615
100.373534710654
100.373266869596
100.373080156587
100.372755139167
100.372456027377
100.372299637296
100.371959120516
100.371913034978
100.371773395251
100.371710396455
100.371644679129
100.371539081403
100.371564422874
100.371373353428
100.371309377752
100.371287850113
100.371274650948
100.371056727846
100.370852724435
100.370656772281
100.370787992839
100.371059228998
100.371083675303
100.370838669655
100.370573993221
100.370619549655
100.370337594961
100.370008741291
100.36968989422
100.369320301459
100.368930518545
100.368569460065
100.368171279973
100.368486541399
100.368978892264
100.369383815458
100.369673612838
100.370003970134
100.370306902725
100.370261760658
100.370312233027
100.370288361445
100.37003892195
100.369863059145
100.369229294068
100.367960527999
100.369650044133
100.371675168552
100.371952218331
100.3722365253
100.373230026437
100.373384104747
100.37352351976
100.373705401916
100.373848539852
100.373900576095
100.373939347829
100.373988286224
100.37398621185
100.374034158169
100.374042221943
100.374062827037
100.374030723914
100.373922660482
100.373802602822
100.373596930407
100.373346248886
100.373172980713
100.372877284291
100.372618837626
100.3724265927
100.372128109095
100.372065091848